CLN025 (ACE-YYDPETGTWY-NH2), capped from PDB 2RVD model 1 in water
 3630
    0ACE    CH3    1   2.774   3.411   2.010
    0ACE   HH31    2   2.788   3.320   2.047
    0ACE   HH32    3   2.807   3.479   2.075
    0ACE   HH33    4   2.676   3.426   1.994
    0ACE      C    5   2.849   3.425   1.878
    0ACE      O    6   2.846   3.530   1.814
    1TYR      N    7   2.918   3.318   1.838
    1TYR      H    8   2.917   3.236   1.895
    1TYR     CA    9   2.994   3.318   1.714
    1TYR     HA   10   2.979   3.408   1.673
    1TYR     CB   11   3.143   3.296   1.743
    1TYR    HB1   12   3.153   3.214   1.799
    1TYR    HB2   13   3.178   3.375   1.793
    1TYR     CG   14   3.227   3.280   1.618
    1TYR    CD1   15   3.261   3.389   1.540
    1TYR    HD1   16   3.229   3.480   1.566
    1TYR    CE1   17   3.338   3.374   1.426
    1TYR    HE1   18   3.361   3.453   1.370
    1TYR     CZ   19   3.382   3.248   1.390
    1TYR     OH   20   3.459   3.233   1.276
    1TYR     HH   21   3.482   3.136   1.265
    1TYR    CE2   22   3.350   3.138   1.466
    1TYR    HE2   23   3.382   3.047   1.440
    1TYR    CD2   24   3.273   3.154   1.580
    1TYR    HD2   25   3.250   3.074   1.635
    1TYR      C   26   2.944   3.210   1.619
    1TYR      O   27   2.970   3.091   1.638
    2TYR      N   28   2.870   3.252   1.516
    2TYR      H   29   2.852   3.350   1.506
    2TYR     CA   30   2.816   3.159   1.418
    2TYR     HA   31   2.749   3.104   1.468
    2TYR     CB   32   2.749   3.236   1.304
    2TYR    HB1   33   2.819   3.283   1.251
    2TYR    HB2   34   2.686   3.303   1.343
    2TYR     CG   35   2.670   3.148   1.210
    2TYR    CD1   36   2.562   3.073   1.255
    2TYR    HD1   37   2.536   3.078   1.351
    2TYR    CE1   38   2.490   2.992   1.169
    2TYR    HE1   39   2.412   2.939   1.203
    2TYR     CZ   40   2.526   2.985   1.036
    2TYR     OH   41   2.455   2.904   0.950
    2TYR     HH   42   2.494   2.911   0.858
    2TYR    CE2   43   2.633   3.058   0.989
    2TYR    HE2   44   2.659   3.052   0.892
    2TYR    CD2   45   2.705   3.138   1.075
    2TYR    HD2   46   2.782   3.191   1.041
    2TYR      C   47   2.925   3.068   1.362
    2TYR      O   48   3.040   3.110   1.347
    3ASP      N   49   2.888   2.944   1.332
    3ASP      H   50   2.793   2.917   1.347
    3ASP     CA   51   2.983   2.848   1.278
    3ASP     HA   52   3.072   2.894   1.279
    3ASP     CB   53   2.986   2.722   1.365
    3ASP    HB1   54   2.901   2.672   1.353
    3ASP    HB2   55   2.996   2.749   1.461
    3ASP     CG   56   3.102   2.630   1.330
    3ASP    OD1   57   3.211   2.647   1.388
    3ASP    OD2   58   3.083   2.542   1.244
    3ASP      C   59   2.946   2.810   1.134
    3ASP      O   60   2.897   2.701   1.107
    4PRO      N   61   2.971   2.903   1.041
    4PRO     CD   62   3.030   3.036   1.067
    4PRO    HD1   63   3.113   3.028   1.122
    4PRO    HD2   64   2.964   3.095   1.114
    4PRO     CG   65   3.061   3.088   0.929
    4PRO    HG1   66   3.155   3.064   0.903
    4PRO    HG2   67   3.049   3.187   0.925
    4PRO     CB   68   2.964   3.021   0.837
    4PRO    HB1   69   3.004   3.014   0.746
    4PRO    HB2   70   2.879   3.073   0.833
    4PRO     CA   71   2.941   2.883   0.899
    4PRO     HA   72   2.849   2.847   0.888
    4PRO      C   73   3.034   2.780   0.835
    4PRO      O   74   3.005   2.727   0.728
    5GLU      N   75   3.146   2.752   0.901
    5GLU      H   76   3.164   2.798   0.988
    5GLU     CA   77   3.243   2.655   0.851
    5GLU     HA   78   3.270   2.690   0.761
    5GLU     CB   79   3.363   2.647   0.945
    5GLU    HB1   80   3.331   2.624   1.037
    5GLU    HB2   81   3.409   2.736   0.946
    5GLU     CG   82   3.465   2.542   0.903
    5GLU    HG1   83   3.464   2.533   0.804
    5GLU    HG2   84   3.440   2.454   0.945
    5GLU     CD   85   3.606   2.577   0.947
    5GLU    OE1   86   3.670   2.659   0.879
    5GLU    OE2   87   3.652   2.522   1.049
    5GLU      C   88   3.179   2.517   0.835
    5GLU      O   89   3.167   2.465   0.725
    6THR      N   90   3.137   2.459   0.947
    6THR      H   91   3.149   2.507   1.035
    6THR     CA   92   3.075   2.327   0.947
    6THR     HA   93   3.127   2.276   0.878
    6THR     CB   94   3.085   2.259   1.085
    6THR     HB   95   3.042   2.316   1.155
    6THR    CG2   96   3.020   2.122   1.082
    6THR   HG21   97   3.028   2.080   1.172
    6THR   HG22   98   2.923   2.131   1.058
    6THR   HG23   99   3.066   2.064   1.015
    6THR    OG1  100   3.222   2.247   1.123
    6THR    HG1  101   3.228   2.203   1.213
    6THR      C  102   2.928   2.336   0.906
    6THR      O  103   2.890   2.290   0.799
    7GLY      N  104   2.847   2.396   0.993
    7GLY      H  105   2.884   2.431   1.079
    7GLY     CA  106   2.706   2.409   0.964
    7GLY    HA1  107   2.680   2.336   0.902
    7GLY    HA2  108   2.692   2.498   0.919
    7GLY      C  109   2.620   2.403   1.089
    7GLY      O  110   2.514   2.341   1.090
    8THR      N  111   2.667   2.467   1.196
    8THR      H  112   2.754   2.515   1.189
    8THR     CA  113   2.594   2.468   1.322
    8THR     HA  114   2.507   2.425   1.300
    8THR     CB  115   2.669   2.388   1.431
    8THR     HB  116   2.755   2.433   1.455
    8THR    CG2  117   2.583   2.371   1.555
    8THR   HG21  118   2.633   2.319   1.624
    8THR   HG22  119   2.560   2.461   1.592
    8THR   HG23  120   2.499   2.323   1.531
    8THR    OG1  121   2.706   2.259   1.380
    8THR    HG1  122   2.754   2.208   1.451
    8THR      C  123   2.572   2.610   1.372
    8THR      O  124   2.667   2.688   1.383
    9TRP      N  125   2.447   2.643   1.402
    9TRP      H  126   2.375   2.575   1.391
    9TRP     CA  127   2.413   2.777   1.450
    9TRP     HA  128   2.456   2.840   1.386
    9TRP     CB  129   2.261   2.795   1.451
    9TRP    HB1  130   2.229   2.794   1.545
    9TRP    HB2  131   2.219   2.720   1.400
    9TRP     CG  132   2.217   2.924   1.388
    9TRP    CD1  133   2.133   2.939   1.282
    9TRP    HD1  134   2.089   2.863   1.232
    9TRP    NE1  135   2.116   3.072   1.253
    9TRP    HE1  136   2.059   3.109   1.179
    9TRP    CE2  137   2.190   3.146   1.341
    9TRP    CZ2  138   2.206   3.284   1.351
    9TRP    HZ2  139   2.159   3.346   1.289
    9TRP    CH2  140   2.287   3.331   1.450
    9TRP    HH2  141   2.300   3.430   1.460
    9TRP    CZ3  142   2.354   3.244   1.538
    9TRP    HZ3  143   2.413   3.282   1.609
    9TRP    CE3  144   2.338   3.107   1.528
    9TRP    HE3  145   2.386   3.046   1.591
    9TRP    CD2  146   2.255   3.056   1.428
    9TRP      C  147   2.469   2.799   1.590
    9TRP      O  148   2.408   2.759   1.690
   10TYR      N  149   2.584   2.865   1.598
   10TYR      H  150   2.628   2.895   1.513
   10TYR     CA  151   2.648   2.893   1.726
   10TYR     HA  152   2.595   2.842   1.794
   10TYR     CB  153   2.793   2.845   1.724
   10TYR    HB1  154   2.847   2.904   1.785
   10TYR    HB2  155   2.828   2.852   1.631
   10TYR     CG  156   2.811   2.702   1.770
   10TYR    CD1  157   2.813   2.671   1.906
   10TYR    HD1  158   2.803   2.744   1.973
   10TYR    CE1  159   2.829   2.540   1.948
   10TYR    HE1  160   2.831   2.519   2.046
   10TYR     CZ  161   2.843   2.439   1.855
   10TYR     OH  162   2.858   2.309   1.897
   10TYR     HH  163   2.867   2.249   1.818
   10TYR    CE2  164   2.840   2.468   1.720
   10TYR    HE2  165   2.850   2.395   1.653
   10TYR    CD2  166   2.825   2.599   1.679
   10TYR    HD2  167   2.823   2.619   1.581
   10TYR      C  168   2.643   3.042   1.758
   10TYR      O  169   2.633   3.081   1.874
   11NH2      N  170   2.648   3.125   1.654
   11NH2     H1  171   2.656   3.088   1.561
   11NH2     H2  172   2.645   3.224   1.668
   12SOL     OW  173   0.230   0.628   0.113
   12SOL    HW1  174   0.137   0.626   0.150
   12SOL    HW2  175   0.231   0.589   0.021
   13SOL     OW  176   0.225   0.275   0.996
   13SOL    HW1  177   0.260   0.258   1.088
   13SOL    HW2  178   0.137   0.230   0.984
   14SOL     OW  179   0.019   0.368   0.647
   14SOL    HW1  180  -0.063   0.411   0.686
   14SOL    HW2  181  -0.009   0.295   0.584
   15SOL     OW  182   0.569   1.275   1.165
   15SOL    HW1  183   0.476   1.268   1.128
   15SOL    HW2  184   0.580   1.364   1.209
   16SOL     OW  185   1.555   1.511   0.703
   16SOL    HW1  186   1.498   1.495   0.784
   16SOL    HW2  187   1.496   1.521   0.623
   17SOL     OW  188   1.135   0.703   0.717
   17SOL    HW1  189   1.192   0.781   0.692
   17SOL    HW2  190   1.075   0.729   0.793
   18SOL     OW  191   1.755   0.607   0.231
   18SOL    HW1  192   1.743   0.594   0.132
   18SOL    HW2  193   1.725   0.526   0.280
   19SOL     OW  194   0.768   1.144   1.023
   19SOL    HW1  195   0.690   1.161   1.083
   19SOL    HW2  196   0.802   1.231   0.987
   20SOL     OW  197   0.850   0.798   1.823
   20SOL    HW1  198   0.846   0.874   1.888
   20SOL    HW2  199   0.872   0.834   1.732
   21SOL     OW  200   0.685   1.012   0.665
   21SOL    HW1  201   0.754   0.996   0.735
   21SOL    HW2  202   0.612   1.069   0.703
   22SOL     OW  203   0.686   1.161   1.803
   22SOL    HW1  204   0.746   1.240   1.817
   22SOL    HW2  205   0.600   1.192   1.762
   23SOL     OW  206   0.335   1.435   1.061
   23SOL    HW1  207   0.257   1.404   1.008
   23SOL    HW2  208   0.393   1.493   1.004
   24SOL     OW  209   1.460   1.505   1.339
   24SOL    HW1  210   1.484   1.599   1.365
   24SOL    HW2  211   1.444   1.451   1.421
   25SOL     OW  212   0.438   0.392   1.499
   25SOL    HW1  213   0.520   0.336   1.508
   25SOL    HW2  214   0.357   0.334   1.503
   26SOL     OW  215   1.603   0.447   0.737
   26SOL    HW1  216   1.529   0.493   0.687
   26SOL    HW2  217   1.654   0.515   0.790
   27SOL     OW  218   0.231   1.713   0.483
   27SOL    HW1  219   0.265   1.790   0.537
   27SOL    HW2  220   0.275   1.713   0.393
   28SOL     OW  221   1.127   1.341   1.690
   28SOL    HW1  222   1.174   1.341   1.778
   28SOL    HW2  223   1.079   1.254   1.679
   29SOL     OW  224   0.230   1.434   0.538
   29SOL    HW1  225   0.204   1.530   0.538
   29SOL    HW2  226   0.159   1.380   0.583
   30SOL     OW  227   0.240   1.091   0.886
   30SOL    HW1  228   0.254   1.007   0.938
   30SOL    HW2  229   0.185   1.155   0.941
   31SOL     OW  230   0.620   1.786   1.439
   31SOL    HW1  231   0.528   1.769   1.474
   31SOL    HW2  232   0.648   1.878   1.465
   32SOL     OW  233   0.606   0.964   0.123
   32SOL    HW1  234   0.613   1.048   0.069
   32SOL    HW2  235   0.652   0.977   0.211
   33SOL     OW  236   1.594   0.114   1.480
   33SOL    HW1  237   1.576   0.181   1.408
   33SOL    HW2  238   1.591   0.160   1.569
   34SOL     OW  239   0.122   0.643   0.563
   34SOL    HW1  240   0.077   0.555   0.580
   34SOL    HW2  241   0.121   0.697   0.647
   35SOL     OW  242   1.842   1.767   0.359
   35SOL    HW1  243   1.896   1.738   0.439
   35SOL    HW2  244   1.872   1.857   0.330
   36SOL     OW  245   0.027   1.596   0.117
   36SOL    HW1  246   0.008   1.500   0.138
   36SOL    HW2  247  -0.006   1.654   0.192
   37SOL     OW  248   1.689   0.922   0.612
   37SOL    HW1  249   1.784   0.893   0.620
   37SOL    HW2  250   1.681   0.987   0.537
   38SOL     OW  251   1.641   1.108   0.432
   38SOL    HW1  252   1.727   1.110   0.380
   38SOL    HW2  253   1.655   1.155   0.520
   39SOL     OW  254   0.113   0.737   1.597
   39SOL    HW1  255   0.201   0.724   1.642
   39SOL    HW2  256   0.100   0.834   1.575
   40SOL     OW  257   0.613   1.365   0.726
   40SOL    HW1  258   0.564   1.278   0.735
   40SOL    HW2  259   0.590   1.408   0.639
   41SOL     OW  260   1.293   1.228   1.423
   41SOL    HW1  261   1.330   1.155   1.365
   41SOL    HW2  262   1.345   1.233   1.508
   42SOL     OW  263   0.809   0.004   0.502
   42SOL    HW1  264   0.849   0.095   0.493
   42SOL    HW2  265   0.709   0.012   0.508
   43SOL     OW  266   0.197   0.976   1.264
   43SOL    HW1  267   0.286   0.931   1.250
   43SOL    HW2  268   0.124   0.911   1.245
   44SOL     OW  269   1.525   0.999   0.190
   44SOL    HW1  270   1.462   0.923   0.203
   44SOL    HW2  271   1.573   1.017   0.276
   45SOL     OW  272   1.187   1.792   1.616
   45SOL    HW1  273   1.211   1.852   1.540
   45SOL    HW2  274   1.194   1.697   1.586
   46SOL     OW  275   0.317   0.251   1.801
   46SOL    HW1  276   0.388   0.322   1.807
   46SOL    HW2  277   0.229   0.290   1.829
   47SOL     OW  278   1.466   1.417   0.953
   47SOL    HW1  279   1.407   1.423   1.033
   47SOL    HW2  280   1.451   1.329   0.907
   48SOL     OW  281   1.667   1.714   0.572
   48SOL    HW1  282   1.626   1.691   0.484
   48SOL    HW2  283   1.649   1.640   0.637
   49SOL     OW  284   0.598   0.729   0.270
   49SOL    HW1  285   0.622   0.798   0.202
   49SOL    HW2  286   0.520   0.762   0.324
   50SOL     OW  287   1.281   0.345   0.944
   50SOL    HW1  288   1.195   0.295   0.931
   50SOL    HW2  289   1.343   0.291   1.000
   51SOL     OW  290   1.576   1.662   0.307
   51SOL    HW1  291   1.665   1.708   0.310
   51SOL    HW2  292   1.555   1.638   0.212
   52SOL     OW  293   0.807   0.605   1.465
   52SOL    HW1  294   0.760   0.602   1.554
   52SOL    HW2  295   0.756   0.550   1.399
   53SOL     OW  296   1.394   0.469   1.674
   53SOL    HW1  297   1.374   0.512   1.762
   53SOL    HW2  298   1.472   0.407   1.683
   54SOL     OW  299   0.973   0.890   1.572
   54SOL    HW1  300   1.019   0.806   1.543
   54SOL    HW2  301   0.917   0.924   1.497
   55SOL     OW  302   0.991   0.410   1.242
   55SOL    HW1  303   0.914   0.444   1.296
   55SOL    HW2  304   0.957   0.359   1.163
   56SOL     OW  305   1.041   0.701   0.429
   56SOL    HW1  306   1.067   0.697   0.525
   56SOL    HW2  307   0.956   0.650   0.415
   57SOL     OW  308   0.076   0.811   0.789
   57SOL    HW1  309   0.175   0.799   0.798
   57SOL    HW2  310   0.052   0.906   0.810
   58SOL     OW  311   0.130   1.821   1.571
   58SOL    HW1  312   0.120   1.806   1.670
   58SOL    HW2  313   0.044   1.857   1.535
   59SOL     OW  314   0.865   0.348   0.195
   59SOL    HW1  315   0.924   0.411   0.146
   59SOL    HW2  316   0.884   0.254   0.166
   60SOL     OW  317   1.719   0.585   1.831
   60SOL    HW1  318   1.693   0.674   1.795
   60SOL    HW2  319   1.717   0.517   1.758
   61SOL     OW  320   1.362   1.144   0.545
   61SOL    HW1  321   1.445   1.115   0.497
   61SOL    HW2  322   1.313   1.211   0.489
   62SOL     OW  323   0.550   0.196   0.885
   62SOL    HW1  324   0.545   0.191   0.985
   62SOL    HW2  325   0.552   0.292   0.856
   63SOL     OW  326   1.008   1.456   0.477
   63SOL    HW1  327   0.962   1.528   0.425
   63SOL    HW2  328   1.004   1.476   0.575
   64SOL     OW  329   0.351   1.801   0.853
   64SOL    HW1  330   0.401   1.715   0.859
   64SOL    HW2  331   0.416   1.878   0.850
   65SOL     OW  332   1.795   1.066   0.873
   65SOL    HW1  333   1.733   1.051   0.797
   65SOL    HW2  334   1.743   1.077   0.958
   66SOL     OW  335   1.227   1.550   1.506
   66SOL    HW1  336   1.233   1.473   1.570
   66SOL    HW2  337   1.175   1.524   1.426
   67SOL     OW  338   0.321   0.943   0.242
   67SOL    HW1  339   0.403   0.982   0.200
   67SOL    HW2  340   0.294   0.861   0.193
   68SOL     OW  341   1.458   0.735   0.728
   68SOL    HW1  342   1.453   0.670   0.803
   68SOL    HW2  343   1.538   0.794   0.741
   69SOL     OW  344   0.461   1.266   1.727
   69SOL    HW1  345   0.411   1.267   1.641
   69SOL    HW2  346   0.398   1.248   1.803
   70SOL     OW  347   1.111   1.776   0.237
   70SOL    HW1  348   1.051   1.714   0.287
   70SOL    HW2  349   1.142   1.732   0.152
   71SOL     OW  350   0.202   0.285   1.498
   71SOL    HW1  351   0.122   0.345   1.485
   71SOL    HW2  352   0.192   0.236   1.584
   72SOL     OW  353   1.632   1.377   0.081
   72SOL    HW1  354   1.600   1.471   0.071
   72SOL    HW2  355   1.556   1.314   0.069
   73SOL     OW  356   0.464   1.743   0.323
   73SOL    HW1  357   0.497   1.782   0.409
   73SOL    HW2  358   0.540   1.736   0.258
   74SOL     OW  359   1.400   0.107   0.426
   74SOL    HW1  360   1.376   0.070   0.336
   74SOL    HW2  361   1.499   0.123   0.430
   75SOL     OW  362   0.249   1.785   1.241
   75SOL    HW1  363   0.306   1.720   1.291
   75SOL    HW2  364   0.233   1.752   1.148
   76SOL     OW  365   0.940   1.698   0.904
   76SOL    HW1  366   1.020   1.641   0.925
   76SOL    HW2  367   0.891   1.658   0.827
   77SOL     OW  368   0.382   0.700   0.480
   77SOL    HW1  369   0.427   0.610   0.477
   77SOL    HW2  370   0.288   0.689   0.513
   78SOL     OW  371   1.547   0.222   1.729
   78SOL    HW1  372   1.542   0.259   1.821
   78SOL    HW2  373   1.475   0.153   1.717
   79SOL     OW  374   0.614   0.122   0.117
   79SOL    HW1  375   0.712   0.100   0.124
   79SOL    HW2  376   0.583   0.105   0.024
   80SOL     OW  377   0.781   0.264   1.749
   80SOL    HW1  378   0.848   0.203   1.792
   80SOL    HW2  379   0.708   0.283   1.814
   81SOL     OW  380   0.888   1.514   1.195
   81SOL    HW1  381   0.865   1.489   1.101
   81SOL    HW2  382   0.949   1.445   1.234
   82SOL     OW  383   1.351   0.590   1.433
   82SOL    HW1  384   1.379   0.547   1.518
   82SOL    HW2  385   1.376   0.686   1.434
   83SOL     OW  386   0.803   1.402   0.924
   83SOL    HW1  387   0.893   1.416   0.882
   83SOL    HW2  388   0.732   1.404   0.853
   84SOL     OW  389   0.922   0.503   0.899
   84SOL    HW1  390   0.897   0.494   0.803
   84SOL    HW2  391   0.970   0.421   0.930
   85SOL     OW  392   0.539   0.064   0.512
   85SOL    HW1  393   0.458   0.065   0.570
   85SOL    HW2  394   0.542   0.147   0.457
   86SOL     OW  395   1.434   1.188   0.041
   86SOL    HW1  396   1.466   1.112   0.098
   86SOL    HW2  397   1.342   1.215   0.071
   87SOL     OW  398   0.297   0.035   0.171
   87SOL    HW1  399   0.346   0.119   0.150
   87SOL    HW2  400   0.359  -0.030   0.216
   88SOL     OW  401   0.935   0.236   0.480
   88SOL    HW1  402   0.887   0.277   0.402
   88SOL    HW2  403   1.034   0.234   0.461
   89SOL     OW  404   1.076   0.683   1.464
   89SOL    HW1  405   0.996   0.622   1.467
   89SOL    HW2  406   1.157   0.630   1.440
   90SOL     OW  407   1.227   1.570   0.793
   90SOL    HW1  408   1.248   1.644   0.728
   90SOL    HW2  409   1.295   1.570   0.866
   91SOL     OW  410   0.459   1.152   0.741
   91SOL    HW1  411   0.388   1.125   0.806
   91SOL    HW2  412   0.433   1.124   0.648
   92SOL     OW  413   1.271   1.797   0.591
   92SOL    HW1  414   1.315   1.861   0.527
   92SOL    HW2  415   1.221   1.849   0.661
   93SOL     OW  416   1.032   0.549   0.016
   93SOL    HW1  417   0.991   0.631  -0.023
   93SOL    HW2  418   1.096   0.575   0.089
   94SOL     OW  419   0.078   0.556   1.386
   94SOL    HW1  420   0.170   0.555   1.345
   94SOL    HW2  421   0.072   0.630   1.453
   95SOL     OW  422   0.561   0.222   1.147
   95SOL    HW1  423   0.599   0.138   1.184
   95SOL    HW2  424   0.473   0.241   1.191
   96SOL     OW  425   0.866   0.454   0.642
   96SOL    HW1  426   0.834   0.526   0.580
   96SOL    HW2  427   0.890   0.373   0.589
   97SOL     OW  428   1.017   0.039   0.753
   97SOL    HW1  429   0.945   0.044   0.684
   97SOL    HW2  430   0.993  -0.030   0.822
   98SOL     OW  431   1.429   1.173   0.867
   98SOL    HW1  432   1.374   1.089   0.860
   98SOL    HW2  433   1.455   1.202   0.775
   99SOL     OW  434   1.466   0.590   0.992
   99SOL    HW1  435   1.436   0.495   0.999
   99SOL    HW2  436   1.539   0.606   1.058
  100SOL     OW  437   1.857   0.833   0.377
  100SOL    HW1  438   1.899   0.769   0.441
  100SOL    HW2  439   1.819   0.782   0.299
  101SOL     OW  440   0.488   1.385   0.174
  101SOL    HW1  441   0.401   1.370   0.221
  101SOL    HW2  442   0.471   1.411   0.079
  102SOL     OW  443   1.664   1.280   0.657
  102SOL    HW1  444   1.763   1.288   0.671
  102SOL    HW2  445   1.619   1.364   0.688
  103SOL     OW  446   1.390   0.575   0.078
  103SOL    HW1  447   1.336   0.554   0.159
  103SOL    HW2  448   1.481   0.534   0.087
  104SOL     OW  449   0.527   0.256   0.328
  104SOL    HW1  450   0.554   0.197   0.253
  104SOL    HW2  451   0.527   0.351   0.297
  105SOL     OW  452   1.754   1.223   1.588
  105SOL    HW1  453   1.845   1.184   1.575
  105SOL    HW2  454   1.762   1.319   1.612
  106SOL     OW  455   1.064   1.347   1.340
  106SOL    HW1  456   0.984   1.324   1.395
  106SOL    HW2  457   1.147   1.321   1.389
  107SOL     OW  458   1.592   1.629   1.625
  107SOL    HW1  459   1.619   1.663   1.535
  107SOL    HW2  460   1.671   1.591   1.671
  108SOL     OW  461   1.111   1.195   1.100
  108SOL    HW1  462   1.071   1.239   1.181
  108SOL    HW2  463   1.070   1.232   1.017
  109SOL     OW  464   1.638   1.099   1.079
  109SOL    HW1  465   1.643   1.180   1.138
  109SOL    HW2  466   1.552   1.101   1.028
  110SOL     OW  467   0.915   0.089   1.402
  110SOL    HW1  468   0.940   0.069   1.307
  110SOL    HW2  469   0.987   0.145   1.444
  111SOL     OW  470   0.980   1.116   1.719
  111SOL    HW1  471   0.881   1.122   1.729
  111SOL    HW2  472   1.003   1.036   1.663
  112SOL     OW  473   0.705   1.050   0.368
  112SOL    HW1  474   0.691   1.057   0.467
  112SOL    HW2  475   0.789   0.999   0.350
  113SOL     OW  476   0.410   0.813   1.251
  113SOL    HW1  477   0.496   0.825   1.301
  113SOL    HW2  478   0.368   0.726   1.278
  114SOL     OW  479   1.274   0.386   1.262
  114SOL    HW1  480   1.295   0.460   1.326
  114SOL    HW2  481   1.185   0.403   1.219
  115SOL     OW  482   0.064   1.564   1.331
  115SOL    HW1  483   0.018   1.646   1.297
  115SOL    HW2  484   0.162   1.583   1.340
  116SOL     OW  485   0.367   1.100   0.501
  116SOL    HW1  486   0.360   1.183   0.445
  116SOL    HW2  487   0.371   1.020   0.441
  117SOL     OW  488   0.566   0.537   0.865
  117SOL    HW1  489   0.578   0.603   0.791
  117SOL    HW2  490   0.612   0.571   0.948
  118SOL     OW  491   1.252   1.348   0.388
  118SOL    HW1  492   1.302   1.425   0.428
  118SOL    HW2  493   1.157   1.350   0.420
  119SOL     OW  494   1.272   1.445   1.142
  119SOL    HW1  495   1.319   1.458   1.229
  119SOL    HW2  496   1.206   1.371   1.151
  120SOL     OW  497   1.582   0.639   0.472
  120SOL    HW1  498   1.551   0.700   0.545
  120SOL    HW2  499   1.632   0.691   0.403
  121SOL     OW  500   0.354   1.510   1.329
  121SOL    HW1  501   0.333   1.466   1.242
  121SOL    HW2  502   0.451   1.536   1.332
  122SOL     OW  503   0.402   0.751   1.598
  122SOL    HW1  504   0.470   0.806   1.551
  122SOL    HW2  505   0.442   0.663   1.625
  123SOL     OW  506   1.587   0.779   1.670
  123SOL    HW1  507   1.495   0.817   1.665
  123SOL    HW2  508   1.647   0.826   1.605
  124SOL     OW  509   1.013   0.105   1.770
  124SOL    HW1  510   1.019   0.190   1.718
  124SOL    HW2  511   1.045   0.029   1.713
  125SOL     OW  512   0.504   0.050   1.740
  125SOL    HW1  513   0.462  -0.007   1.670
  125SOL    HW2  514   0.438   0.119   1.772
  126SOL     OW  515   0.573   0.870   1.029
  126SOL    HW1  516   0.617   0.959   1.020
  126SOL    HW2  517   0.510   0.870   1.106
  127SOL     OW  518   1.360   0.862   1.045
  127SOL    HW1  519   1.285   0.862   0.979
  127SOL    HW2  520   1.397   0.770   1.054
  128SOL     OW  521   1.209   0.525   0.275
  128SOL    HW1  522   1.222   0.441   0.329
  128SOL    HW2  523   1.180   0.599   0.335
  129SOL     OW  524   0.307   0.213   1.231
  129SOL    HW1  525   0.284   0.250   1.321
  129SOL    HW2  526   0.277   0.118   1.225
  130SOL     OW  527   0.037   1.310   1.282
  130SOL    HW1  528   0.090   1.261   1.350
  130SOL    HW2  529   0.059   1.408   1.287
  131SOL     OW  530   0.732   0.634   1.064
  131SOL    HW1  531   0.791   0.608   0.988
  131SOL    HW2  532   0.704   0.730   1.053
  132SOL     OW  533   1.728   0.935   1.854
  132SOL    HW1  534   1.682   0.928   1.765
  132SOL    HW2  535   1.666   0.979   1.920
  133SOL     OW  536   0.307   0.063   0.618
  133SOL    HW1  537   0.296   0.157   0.651
  133SOL    HW2  538   0.302   0.000   0.695
  134SOL     OW  539   1.622   0.367   0.374
  134SOL    HW1  540   1.624   0.291   0.438
  134SOL    HW2  541   1.574   0.444   0.414
  135SOL     OW  542   1.023   0.766   0.966
  135SOL    HW1  543   1.038   0.787   1.062
  135SOL    HW2  544   0.993   0.671   0.957
  136SOL     OW  545   0.980   1.573   1.700
  136SOL    HW1  546   0.960   1.617   1.612
  136SOL    HW2  547   1.019   1.482   1.684
  137SOL     OW  548   1.859   1.518   1.605
  137SOL    HW1  549   1.873   1.545   1.510
  137SOL    HW2  550   1.942   1.540   1.658
  138SOL     OW  551   0.350   0.898   1.804
  138SOL    HW1  552   0.426   0.942   1.852
  138SOL    HW2  553   0.385   0.851   1.722
  139SOL     OW  554   1.540   0.274   0.125
  139SOL    HW1  555   1.479   0.199   0.148
  139SOL    HW2  556   1.562   0.326   0.208
  140SOL     OW  557   1.303   0.838   0.042
  140SOL    HW1  558   1.337   0.745   0.057
  140SOL    HW2  559   1.321   0.865  -0.053
  141SOL     OW  560   1.068   1.333   0.849
  141SOL    HW1  561   1.075   1.249   0.794
  141SOL    HW2  562   1.130   1.402   0.813
  142SOL     OW  563   0.319   0.810   0.949
  142SOL    HW1  564   0.412   0.846   0.954
  142SOL    HW2  565   0.313   0.725   1.001
  143SOL     OW  566   0.339   0.509   1.006
  143SOL    HW1  567   0.287   0.426   0.989
  143SOL    HW2  568   0.416   0.514   0.942
  144SOL     OW  569   1.138   0.380   1.678
  144SOL    HW1  570   1.093   0.443   1.742
  144SOL    HW2  571   1.231   0.411   1.661
  145SOL     OW  572   1.160   0.207   1.477
  145SOL    HW1  573   1.160   0.271   1.554
  145SOL    HW2  574   1.188   0.255   1.394
  146SOL     OW  575   0.008   1.326   0.200
  146SOL    HW1  576  -0.085   1.347   0.169
  146SOL    HW2  577   0.018   1.227   0.213
  147SOL     OW  578   0.088   1.801   0.927
  147SOL    HW1  579   0.046   1.715   0.900
  147SOL    HW2  580   0.182   1.804   0.893
  148SOL     OW  581   0.504   1.568   0.910
  148SOL    HW1  582   0.570   1.642   0.919
  148SOL    HW2  583   0.548   1.489   0.868
  149SOL     OW  584   1.002   0.796   1.238
  149SOL    HW1  585   1.043   0.764   1.324
  149SOL    HW2  586   0.906   0.769   1.235
  150SOL     OW  587   0.040   0.544   1.114
  150SOL    HW1  588   0.125   0.511   1.073
  150SOL    HW2  589   0.053   0.559   1.212
  151SOL     OW  590   0.189   0.520   1.722
  151SOL    HW1  591   0.248   0.480   1.652
  151SOL    HW2  592   0.131   0.591   1.681
  152SOL     OW  593   1.369   0.950   1.660
  152SOL    HW1  594   1.408   1.039   1.680
  152SOL    HW2  595   1.379   0.930   1.563
  153SOL     OW  596   0.815   0.572   0.325
  153SOL    HW1  597   0.822   0.483   0.279
  153SOL    HW2  598   0.721   0.606   0.317
  154SOL     OW  599   1.657   0.604   1.206
  154SOL    HW1  600   1.619   0.535   1.268
  154SOL    HW2  601   1.739   0.568   1.162
  155SOL     OW  602   0.252   1.564   1.744
  155SOL    HW1  603   0.222   1.621   1.820
  155SOL    HW2  604   0.245   1.467   1.770
  156SOL     OW  605   0.671   0.464   1.269
  156SOL    HW1  606   0.637   0.375   1.239
  156SOL    HW2  607   0.697   0.518   1.189
  157SOL     OW  608   0.930   1.678   1.465
  157SOL    HW1  609   0.906   1.660   1.370
  157SOL    HW2  610   0.960   1.772   1.475
  158SOL     OW  611   0.473   0.500   0.191
  158SOL    HW1  612   0.534   0.580   0.195
  158SOL    HW2  613   0.378   0.531   0.198
  159SOL     OW  614   0.159   1.137   1.466
  159SOL    HW1  615   0.181   1.076   1.542
  159SOL    HW2  616   0.169   1.088   1.380
  160SOL     OW  617   1.347   1.059   1.234
  160SOL    HW1  618   1.371   0.996   1.160
  160SOL    HW2  619   1.257   1.099   1.216
  161SOL     OW  620   1.302   0.855   0.309
  161SOL    HW1  621   1.216   0.824   0.351
  161SOL    HW2  622   1.298   0.841   0.210
  162SOL     OW  623   1.759   1.747   1.154
  162SOL    HW1  624   1.820   1.777   1.081
  162SOL    HW2  625   1.721   1.658   1.132
  163SOL     OW  626   1.252   1.731   1.128
  163SOL    HW1  627   1.336   1.736   1.074
  163SOL    HW2  628   1.229   1.635   1.146
  164SOL     OW  629   0.083   1.258   1.022
  164SOL    HW1  630   0.078   1.257   1.122
  164SOL    HW2  631   0.000   1.217   0.984
  165SOL     OW  632   0.688   1.662   1.716
  165SOL    HW1  633   0.632   1.743   1.725
  165SOL    HW2  634   0.740   1.666   1.630
  166SOL     OW  635   0.903   0.086   0.133
  166SOL    HW1  636   0.954   0.087   0.047
  166SOL    HW2  637   0.959   0.044   0.204
  167SOL     OW  638   1.726   0.135   0.523
  167SOL    HW1  639   1.799   0.118   0.456
  167SOL    HW2  640   1.695   0.048   0.561
  168SOL     OW  641   1.388   1.573   0.477
  168SOL    HW1  642   1.455   1.585   0.403
  168SOL    HW2  643   1.348   1.662   0.500
  169SOL     OW  644   0.130   1.794   1.851
  169SOL    HW1  645   0.089   1.720   1.904
  169SOL    HW2  646   0.194   1.845   1.909
  170SOL     OW  647   1.280   0.927   0.672
  170SOL    HW1  648   1.340   0.846   0.674
  170SOL    HW2  649   1.320   0.996   0.612
  171SOL     OW  650   0.830   1.273   1.422
  171SOL    HW1  651   0.825   1.306   1.517
  171SOL    HW2  652   0.744   1.292   1.376
  172SOL     OW  653   0.672   1.616   0.154
  172SOL    HW1  654   0.681   1.626   0.055
  172SOL    HW2  655   0.632   1.527   0.175
  173SOL     OW  656   1.650   1.720   1.394
  173SOL    HW1  657   1.703   1.730   1.310
  173SOL    HW2  658   1.623   1.810   1.428
  174SOL     OW  659   1.841   0.175   0.963
  174SOL    HW1  660   1.880   0.090   0.927
  174SOL    HW2  661   1.743   0.177   0.944
  175SOL     OW  662   0.263   0.326   0.720
  175SOL    HW1  663   0.184   0.377   0.686
  175SOL    HW2  664   0.254   0.311   0.818
  176SOL     OW  665   1.194   1.612   0.031
  176SOL    HW1  666   1.200   1.519   0.068
  176SOL    HW2  667   1.135   1.612  -0.049
  177SOL     OW  668   0.822   1.002   1.372
  177SOL    HW1  669   0.862   1.001   1.280
  177SOL    HW2  670   0.832   1.094   1.412
  178SOL     OW  671   0.916   0.910   0.291
  178SOL    HW1  672   0.979   0.948   0.223
  178SOL    HW2  673   0.956   0.827   0.330
  179SOL     OW  674   1.504   1.607   0.044
  179SOL    HW1  675   1.412   1.644   0.051
  179SOL    HW2  676   1.542   1.627  -0.046
  180SOL     OW  677   0.372   1.288   1.490
  180SOL    HW1  678   0.359   1.381   1.456
  180SOL    HW2  679   0.288   1.236   1.477
  181SOL     OW  680   1.614   1.292   1.289
  181SOL    HW1  681   1.674   1.295   1.369
  181SOL    HW2  682   1.539   1.356   1.302
  182SOL     OW  683   1.039   1.098   0.696
  182SOL    HW1  684   0.969   1.051   0.750
  182SOL    HW2  685   1.098   1.030   0.653
  183SOL     OW  686   1.014   0.236   0.971
  183SOL    HW1  687   1.006   0.200   0.878
  183SOL    HW2  688   1.012   0.160   1.036
  184SOL     OW  689   0.590   1.487   0.491
  184SOL    HW1  690   0.632   1.429   0.421
  184SOL    HW2  691   0.546   1.566   0.447
  185SOL     OW  692   1.709   0.385   1.381
  185SOL    HW1  693   1.782   0.454   1.385
  185SOL    HW2  694   1.737   0.310   1.322
  186SOL     OW  695   0.255   1.348   0.290
  186SOL    HW1  696   0.159   1.349   0.263
  186SOL    HW2  697   0.267   1.401   0.374
  187SOL     OW  698   0.105   1.013   1.726
  187SOL    HW1  699   0.028   0.980   1.780
  187SOL    HW2  700   0.190   0.983   1.768
  188SOL     OW  701   0.672   0.203   1.489
  188SOL    HW1  702   0.762   0.187   1.449
  188SOL    HW2  703   0.680   0.208   1.588
  189SOL     OW  704   0.075   0.345   0.033
  189SOL    HW1  705  -0.017   0.317   0.004
  189SOL    HW2  706   0.106   0.422  -0.023
  190SOL     OW  707   1.440   0.856   1.398
  190SOL    HW1  708   1.383   0.908   1.335
  190SOL    HW2  709   1.536   0.868   1.374
  191SOL     OW  710   0.072   0.166   0.318
  191SOL    HW1  711   0.055   0.249   0.264
  191SOL    HW2  712   0.162   0.129   0.296
  192SOL     OW  713   1.183   1.335   0.119
  192SOL    HW1  714   1.084   1.324   0.121
  192SOL    HW2  715   1.217   1.350   0.212
  193SOL     OW  716   0.613   0.842   1.431
  193SOL    HW1  717   0.669   0.923   1.414
  193SOL    HW2  718   0.672   0.762   1.434
  194SOL     OW  719   1.493   1.767   0.959
  194SOL    HW1  720   1.526   1.831   0.890
  194SOL    HW2  721   1.559   1.761   1.034
  195SOL     OW  722   0.716   0.565   1.708
  195SOL    HW1  723   0.735   0.630   1.782
  195SOL    HW2  724   0.776   0.485   1.717
  196SOL     OW  725   1.450   1.220   1.633
  196SOL    HW1  726   1.441   1.210   1.732
  196SOL    HW2  727   1.546   1.213   1.607
  197SOL     OW  728   0.390   1.741   1.560
  197SOL    HW1  729   0.299   1.782   1.558
  197SOL    HW2  730   0.383   1.647   1.592
  198SOL     OW  731   1.674   0.883   1.254
  198SOL    HW1  732   1.647   0.794   1.217
  198SOL    HW2  733   1.675   0.951   1.181
  199SOL     OW  734   1.225   0.325   0.449
  199SOL    HW1  735   1.290   0.251   0.438
  199SOL    HW2  736   1.245   0.375   0.533
  200SOL     OW  737   0.594   0.745   0.652
  200SOL    HW1  738   0.644   0.830   0.633
  200SOL    HW2  739   0.506   0.747   0.604
  201SOL     OW  740   1.777   0.342   1.642
  201SOL    HW1  741   1.760   0.373   1.548
  201SOL    HW2  742   1.693   0.305   1.680
  202SOL     OW  743   1.730   0.934   1.517
  202SOL    HW1  744   1.768   1.025   1.532
  202SOL    HW2  745   1.722   0.917   1.418
  203SOL     OW  746   0.859   1.374   0.016
  203SOL    HW1  747   0.813   1.389   0.104
  203SOL    HW2  748   0.903   1.459  -0.014
  204SOL     OW  749   0.661   1.790   0.953
  204SOL    HW1  750   0.615   1.878   0.940
  204SOL    HW2  751   0.760   1.802   0.946
  205SOL     OW  752   0.859   0.956   0.861
  205SOL    HW1  753   0.913   0.887   0.909
  205SOL    HW2  754   0.827   1.025   0.927
  206SOL     OW  755   1.083   0.984   0.087
  206SOL    HW1  756   1.060   1.037   0.005
  206SOL    HW2  757   1.164   0.928   0.068
  207SOL     OW  758   1.861   1.569   0.851
  207SOL    HW1  759   1.790   1.557   0.781
  207SOL    HW2  760   1.862   1.490   0.911
  208SOL     OW  761   0.221   1.314   1.844
  208SOL    HW1  762   0.156   1.241   1.823
  208SOL    HW2  763   0.225   1.328   1.942
  209SOL     OW  764   0.079   1.240   0.653
  209SOL    HW1  765   0.078   1.193   0.741
  209SOL    HW2  766   0.161   1.212   0.602
  210SOL     OW  767   0.672   1.391   1.624
  210SOL    HW1  768   0.594   1.341   1.662
  210SOL    HW2  769   0.669   1.486   1.655
  211SOL     OW  770   1.824   0.192   1.227
  211SOL    HW1  771   1.820   0.102   1.271
  211SOL    HW2  772   1.827   0.181   1.128
  212SOL     OW  773   0.428   0.424   0.520
  212SOL    HW1  774   0.458   0.352   0.458
  212SOL    HW2  775   0.389   0.384   0.603
  213SOL     OW  776   1.705   1.487   1.104
  213SOL    HW1  777   1.612   1.462   1.077
  213SOL    HW2  778   1.731   1.437   1.186
  214SOL     OW  779   0.317   0.547   1.280
  214SOL    HW1  780   0.355   0.488   1.352
  214SOL    HW2  781   0.357   0.521   1.192
  215SOL     OW  782   1.424   0.214   1.112
  215SOL    HW1  783   1.476   0.149   1.167
  215SOL    HW2  784   1.375   0.277   1.173
  216SOL     OW  785   1.001   0.034   1.154
  216SOL    HW1  786   0.938  -0.038   1.123
  216SOL    HW2  787   1.094  -0.002   1.154
  217SOL     OW  788   0.770   1.330   0.301
  217SOL    HW1  789   0.724   1.243   0.318
  217SOL    HW2  790   0.861   1.327   0.342
  218SOL     OW  791   0.618   1.567   1.284
  218SOL    HW1  792   0.613   1.649   1.341
  218SOL    HW2  793   0.707   1.564   1.239
  219SOL     OW  794   1.352   0.052   0.168
  219SOL    HW1  795   1.387   0.011   0.084
  219SOL    HW2  796   1.262   0.014   0.188
  220SOL     OW  797   1.300   0.453   0.691
  220SOL    HW1  798   1.241   0.533   0.695
  220SOL    HW2  799   1.315   0.418   0.784
  221SOL     OW  800   1.593   0.221   0.882
  221SOL    HW1  801   1.509   0.220   0.936
  221SOL    HW2  802   1.595   0.304   0.826
  222SOL     OW  803   0.039   1.077   0.300
  222SOL    HW1  804   0.138   1.066   0.291
  222SOL    HW2  805  -0.001   0.991   0.332
  223SOL     OW  806   0.875   1.646   0.337
  223SOL    HW1  807   0.798   1.611   0.283
  223SOL    HW2  808   0.843   1.717   0.399
  224SOL     OW  809   0.230   0.628   1.975
  224SOL    HW1  810   0.137   0.626   2.012
  224SOL    HW2  811   0.231   0.589   1.883
  225SOL     OW  812   0.225   0.275   2.858
  225SOL    HW1  813   0.260   0.258   2.950
  225SOL    HW2  814   0.137   0.230   2.846
  226SOL     OW  815   0.019   0.368   2.509
  226SOL    HW1  816  -0.063   0.411   2.548
  226SOL    HW2  817  -0.009   0.295   2.446
  227SOL     OW  818   1.555   1.511   2.565
  227SOL    HW1  819   1.498   1.495   2.646
  227SOL    HW2  820   1.496   1.521   2.485
  228SOL     OW  821   1.135   0.703   2.579
  228SOL    HW1  822   1.192   0.781   2.554
  228SOL    HW2  823   1.075   0.729   2.655
  229SOL     OW  824   1.755   0.607   2.093
  229SOL    HW1  825   1.743   0.594   1.994
  229SOL    HW2  826   1.725   0.526   2.142
  230SOL     OW  827   0.768   1.144   2.885
  230SOL    HW1  828   0.690   1.161   2.945
  230SOL    HW2  829   0.802   1.231   2.849
  231SOL     OW  830   0.685   1.012   2.527
  231SOL    HW1  831   0.754   0.996   2.597
  231SOL    HW2  832   0.612   1.069   2.565
  232SOL     OW  833   0.335   1.435   2.923
  232SOL    HW1  834   0.257   1.404   2.870
  232SOL    HW2  835   0.393   1.493   2.866
  233SOL     OW  836   1.603   0.447   2.599
  233SOL    HW1  837   1.529   0.493   2.549
  233SOL    HW2  838   1.654   0.515   2.652
  234SOL     OW  839   0.231   1.713   2.345
  234SOL    HW1  840   0.265   1.790   2.399
  234SOL    HW2  841   0.275   1.713   2.255
  235SOL     OW  842   0.230   1.434   2.400
  235SOL    HW1  843   0.204   1.530   2.400
  235SOL    HW2  844   0.159   1.380   2.445
  236SOL     OW  845   0.240   1.091   2.748
  236SOL    HW1  846   0.254   1.007   2.800
  236SOL    HW2  847   0.185   1.155   2.803
  237SOL     OW  848   0.606   0.964   1.985
  237SOL    HW1  849   0.613   1.048   1.931
  237SOL    HW2  850   0.652   0.977   2.073
  238SOL     OW  851   0.122   0.643   2.425
  238SOL    HW1  852   0.077   0.555   2.442
  238SOL    HW2  853   0.121   0.697   2.509
  239SOL     OW  854   1.842   1.767   2.221
  239SOL    HW1  855   1.896   1.738   2.301
  239SOL    HW2  856   1.872   1.857   2.192
  240SOL     OW  857   0.027   1.596   1.979
  240SOL    HW1  858   0.008   1.500   2.000
  240SOL    HW2  859  -0.006   1.654   2.054
  241SOL     OW  860   1.689   0.922   2.474
  241SOL    HW1  861   1.784   0.893   2.482
  241SOL    HW2  862   1.681   0.987   2.399
  242SOL     OW  863   1.641   1.108   2.294
  242SOL    HW1  864   1.727   1.110   2.242
  242SOL    HW2  865   1.655   1.155   2.382
  243SOL     OW  866   0.809   0.004   2.364
  243SOL    HW1  867   0.849   0.095   2.355
  243SOL    HW2  868   0.709   0.012   2.370
  244SOL     OW  869   1.525   0.999   2.052
  244SOL    HW1  870   1.462   0.923   2.065
  244SOL    HW2  871   1.573   1.017   2.138
  245SOL     OW  872   1.466   1.417   2.815
  245SOL    HW1  873   1.407   1.423   2.895
  245SOL    HW2  874   1.451   1.329   2.769
  246SOL     OW  875   1.667   1.714   2.434
  246SOL    HW1  876   1.626   1.691   2.346
  246SOL    HW2  877   1.649   1.640   2.499
  247SOL     OW  878   0.598   0.729   2.132
  247SOL    HW1  879   0.622   0.798   2.064
  247SOL    HW2  880   0.520   0.762   2.186
  248SOL     OW  881   1.281   0.345   2.806
  248SOL    HW1  882   1.195   0.295   2.793
  248SOL    HW2  883   1.343   0.291   2.862
  249SOL     OW  884   1.576   1.662   2.169
  249SOL    HW1  885   1.665   1.708   2.172
  249SOL    HW2  886   1.555   1.638   2.074
  250SOL     OW  887   1.041   0.701   2.291
  250SOL    HW1  888   1.067   0.697   2.387
  250SOL    HW2  889   0.956   0.650   2.277
  251SOL     OW  890   0.076   0.811   2.651
  251SOL    HW1  891   0.175   0.799   2.660
  251SOL    HW2  892   0.052   0.906   2.672
  252SOL     OW  893   0.865   0.348   2.057
  252SOL    HW1  894   0.924   0.411   2.008
  252SOL    HW2  895   0.884   0.254   2.028
  253SOL     OW  896   1.362   1.144   2.407
  253SOL    HW1  897   1.445   1.115   2.359
  253SOL    HW2  898   1.313   1.211   2.351
  254SOL     OW  899   0.550   0.196   2.747
  254SOL    HW1  900   0.545   0.191   2.847
  254SOL    HW2  901   0.552   0.292   2.718
  255SOL     OW  902   1.008   1.456   2.339
  255SOL    HW1  903   0.962   1.528   2.287
  255SOL    HW2  904   1.004   1.476   2.437
  256SOL     OW  905   0.351   1.801   2.715
  256SOL    HW1  906   0.401   1.715   2.721
  256SOL    HW2  907   0.416   1.878   2.712
  257SOL     OW  908   1.795   1.066   2.735
  257SOL    HW1  909   1.733   1.051   2.659
  257SOL    HW2  910   1.743   1.077   2.820
  258SOL     OW  911   0.321   0.943   2.104
  258SOL    HW1  912   0.403   0.982   2.062
  258SOL    HW2  913   0.294   0.861   2.055
  259SOL     OW  914   1.458   0.735   2.590
  259SOL    HW1  915   1.453   0.670   2.665
  259SOL    HW2  916   1.538   0.794   2.603
  260SOL     OW  917   1.111   1.776   2.099
  260SOL    HW1  918   1.051   1.714   2.149
  260SOL    HW2  919   1.142   1.732   2.014
  261SOL     OW  920   1.632   1.377   1.943
  261SOL    HW1  921   1.600   1.471   1.933
  261SOL    HW2  922   1.556   1.314   1.931
  262SOL     OW  923   0.464   1.743   2.185
  262SOL    HW1  924   0.497   1.782   2.271
  262SOL    HW2  925   0.540   1.736   2.120
  263SOL     OW  926   1.400   0.107   2.288
  263SOL    HW1  927   1.376   0.070   2.198
  263SOL    HW2  928   1.499   0.123   2.292
  264SOL     OW  929   0.940   1.698   2.766
  264SOL    HW1  930   1.020   1.641   2.787
  264SOL    HW2  931   0.891   1.658   2.689
  265SOL     OW  932   0.382   0.700   2.342
  265SOL    HW1  933   0.427   0.610   2.339
  265SOL    HW2  934   0.288   0.689   2.375
  266SOL     OW  935   0.614   0.122   1.979
  266SOL    HW1  936   0.712   0.100   1.986
  266SOL    HW2  937   0.583   0.105   1.886
  267SOL     OW  938   0.803   1.402   2.786
  267SOL    HW1  939   0.893   1.416   2.744
  267SOL    HW2  940   0.732   1.404   2.715
  268SOL     OW  941   0.922   0.503   2.761
  268SOL    HW1  942   0.897   0.494   2.665
  268SOL    HW2  943   0.970   0.421   2.792
  269SOL     OW  944   0.539   0.064   2.374
  269SOL    HW1  945   0.458   0.065   2.432
  269SOL    HW2  946   0.542   0.147   2.319
  270SOL     OW  947   1.434   1.188   1.903
  270SOL    HW1  948   1.466   1.112   1.960
  270SOL    HW2  949   1.342   1.215   1.933
  271SOL     OW  950   0.297   0.035   2.033
  271SOL    HW1  951   0.346   0.119   2.012
  271SOL    HW2  952   0.359  -0.030   2.078
  272SOL     OW  953   0.935   0.236   2.342
  272SOL    HW1  954   0.887   0.277   2.264
  272SOL    HW2  955   1.034   0.234   2.323
  273SOL     OW  956   1.227   1.570   2.655
  273SOL    HW1  957   1.248   1.644   2.590
  273SOL    HW2  958   1.295   1.570   2.728
  274SOL     OW  959   0.459   1.152   2.603
  274SOL    HW1  960   0.388   1.125   2.668
  274SOL    HW2  961   0.433   1.124   2.510
  275SOL     OW  962   1.271   1.797   2.453
  275SOL    HW1  963   1.315   1.861   2.389
  275SOL    HW2  964   1.221   1.849   2.523
  276SOL     OW  965   1.032   0.549   1.878
  276SOL    HW1  966   0.991   0.631   1.839
  276SOL    HW2  967   1.096   0.575   1.951
  277SOL     OW  968   0.866   0.454   2.504
  277SOL    HW1  969   0.834   0.526   2.442
  277SOL    HW2  970   0.890   0.373   2.451
  278SOL     OW  971   1.017   0.039   2.615
  278SOL    HW1  972   0.945   0.044   2.546
  278SOL    HW2  973   0.993  -0.030   2.684
  279SOL     OW  974   1.429   1.173   2.729
  279SOL    HW1  975   1.374   1.089   2.722
  279SOL    HW2  976   1.455   1.202   2.637
  280SOL     OW  977   1.466   0.590   2.854
  280SOL    HW1  978   1.436   0.495   2.861
  280SOL    HW2  979   1.539   0.606   2.920
  281SOL     OW  980   1.857   0.833   2.239
  281SOL    HW1  981   1.899   0.769   2.303
  281SOL    HW2  982   1.819   0.782   2.161
  282SOL     OW  983   0.488   1.385   2.036
  282SOL    HW1  984   0.401   1.370   2.083
  282SOL    HW2  985   0.471   1.411   1.941
  283SOL     OW  986   1.664   1.280   2.519
  283SOL    HW1  987   1.763   1.288   2.533
  283SOL    HW2  988   1.619   1.364   2.550
  284SOL     OW  989   1.390   0.575   1.940
  284SOL    HW1  990   1.336   0.554   2.021
  284SOL    HW2  991   1.481   0.534   1.949
  285SOL     OW  992   0.527   0.256   2.190
  285SOL    HW1  993   0.554   0.197   2.115
  285SOL    HW2  994   0.527   0.351   2.159
  286SOL     OW  995   1.111   1.195   2.962
  286SOL    HW1  996   1.071   1.239   3.043
  286SOL    HW2  997   1.070   1.232   2.879
  287SOL     OW  998   1.638   1.099   2.941
  287SOL    HW1  999   1.643   1.180   3.000
  287SOL    HW2 1000   1.552   1.101   2.890
  288SOL     OW 1001   0.705   1.050   2.230
  288SOL    HW1 1002   0.691   1.057   2.329
  288SOL    HW2 1003   0.789   0.999   2.212
  289SOL     OW 1004   0.367   1.100   2.363
  289SOL    HW1 1005   0.360   1.183   2.307
  289SOL    HW2 1006   0.371   1.020   2.303
  290SOL     OW 1007   0.566   0.537   2.727
  290SOL    HW1 1008   0.578   0.603   2.653
  290SOL    HW2 1009   0.612   0.571   2.810
  291SOL     OW 1010   1.252   1.348   2.250
  291SOL    HW1 1011   1.302   1.425   2.290
  291SOL    HW2 1012   1.157   1.350   2.282
  292SOL     OW 1013   1.582   0.639   2.334
  292SOL    HW1 1014   1.551   0.700   2.407
  292SOL    HW2 1015   1.632   0.691   2.265
  293SOL     OW 1016   0.573   0.870   2.891
  293SOL    HW1 1017   0.617   0.959   2.882
  293SOL    HW2 1018   0.510   0.870   2.968
  294SOL     OW 1019   1.360   0.862   2.907
  294SOL    HW1 1020   1.285   0.862   2.841
  294SOL    HW2 1021   1.397   0.770   2.916
  295SOL     OW 1022   1.209   0.525   2.137
  295SOL    HW1 1023   1.222   0.441   2.191
  295SOL    HW2 1024   1.180   0.599   2.197
  296SOL     OW 1025   0.732   0.634   2.926
  296SOL    HW1 1026   0.791   0.608   2.850
  296SOL    HW2 1027   0.704   0.730   2.915
  297SOL     OW 1028   0.307   0.063   2.480
  297SOL    HW1 1029   0.296   0.157   2.513
  297SOL    HW2 1030   0.302   0.000   2.557
  298SOL     OW 1031   1.622   0.367   2.236
  298SOL    HW1 1032   1.624   0.291   2.300
  298SOL    HW2 1033   1.574   0.444   2.276
  299SOL     OW 1034   1.023   0.766   2.828
  299SOL    HW1 1035   1.038   0.787   2.924
  299SOL    HW2 1036   0.993   0.671   2.819
  300SOL     OW 1037   1.540   0.274   1.987
  300SOL    HW1 1038   1.479   0.199   2.010
  300SOL    HW2 1039   1.562   0.326   2.070
  301SOL     OW 1040   1.303   0.838   1.904
  301SOL    HW1 1041   1.337   0.745   1.919
  301SOL    HW2 1042   1.321   0.865   1.809
  302SOL     OW 1043   1.068   1.333   2.711
  302SOL    HW1 1044   1.075   1.249   2.656
  302SOL    HW2 1045   1.130   1.402   2.675
  303SOL     OW 1046   0.319   0.810   2.811
  303SOL    HW1 1047   0.412   0.846   2.816
  303SOL    HW2 1048   0.313   0.725   2.863
  304SOL     OW 1049   0.339   0.509   2.868
  304SOL    HW1 1050   0.287   0.426   2.851
  304SOL    HW2 1051   0.416   0.514   2.804
  305SOL     OW 1052   0.008   1.326   2.062
  305SOL    HW1 1053  -0.085   1.347   2.031
  305SOL    HW2 1054   0.018   1.227   2.075
  306SOL     OW 1055   0.088   1.801   2.789
  306SOL    HW1 1056   0.046   1.715   2.762
  306SOL    HW2 1057   0.182   1.804   2.755
  307SOL     OW 1058   0.504   1.568   2.772
  307SOL    HW1 1059   0.570   1.642   2.781
  307SOL    HW2 1060   0.548   1.489   2.730
  308SOL     OW 1061   0.040   0.544   2.976
  308SOL    HW1 1062   0.125   0.511   2.935
  308SOL    HW2 1063   0.053   0.559   3.074
  309SOL     OW 1064   0.815   0.572   2.187
  309SOL    HW1 1065   0.822   0.483   2.141
  309SOL    HW2 1066   0.721   0.606   2.179
  310SOL     OW 1067   0.473   0.500   2.053
  310SOL    HW1 1068   0.534   0.580   2.057
  310SOL    HW2 1069   0.378   0.531   2.060
  311SOL     OW 1070   1.302   0.855   2.171
  311SOL    HW1 1071   1.216   0.824   2.213
  311SOL    HW2 1072   1.298   0.841   2.072
  312SOL     OW 1073   1.252   1.731   2.990
  312SOL    HW1 1074   1.336   1.736   2.936
  312SOL    HW2 1075   1.229   1.635   3.008
  313SOL     OW 1076   0.083   1.258   2.884
  313SOL    HW1 1077   0.078   1.257   2.984
  313SOL    HW2 1078   0.000   1.217   2.846
  314SOL     OW 1079   1.726   0.135   2.385
  314SOL    HW1 1080   1.799   0.118   2.318
  314SOL    HW2 1081   1.695   0.048   2.423
  315SOL     OW 1082   1.388   1.573   2.339
  315SOL    HW1 1083   1.455   1.585   2.265
  315SOL    HW2 1084   1.348   1.662   2.362
  316SOL     OW 1085   1.280   0.927   2.534
  316SOL    HW1 1086   1.340   0.846   2.536
  316SOL    HW2 1087   1.320   0.996   2.474
  317SOL     OW 1088   0.672   1.616   2.016
  317SOL    HW1 1089   0.681   1.626   1.917
  317SOL    HW2 1090   0.632   1.527   2.037
  318SOL     OW 1091   1.841   0.175   2.825
  318SOL    HW1 1092   1.880   0.090   2.789
  318SOL    HW2 1093   1.743   0.177   2.806
  319SOL     OW 1094   0.263   0.326   2.582
  319SOL    HW1 1095   0.184   0.377   2.548
  319SOL    HW2 1096   0.254   0.311   2.680
  320SOL     OW 1097   1.194   1.612   1.893
  320SOL    HW1 1098   1.200   1.519   1.930
  320SOL    HW2 1099   1.135   1.612   1.813
  321SOL     OW 1100   0.916   0.910   2.153
  321SOL    HW1 1101   0.979   0.948   2.085
  321SOL    HW2 1102   0.956   0.827   2.192
  322SOL     OW 1103   1.504   1.607   1.906
  322SOL    HW1 1104   1.412   1.644   1.913
  322SOL    HW2 1105   1.542   1.627   1.816
  323SOL     OW 1106   1.039   1.098   2.558
  323SOL    HW1 1107   0.969   1.051   2.612
  323SOL    HW2 1108   1.098   1.030   2.515
  324SOL     OW 1109   1.014   0.236   2.833
  324SOL    HW1 1110   1.006   0.200   2.740
  324SOL    HW2 1111   1.012   0.160   2.898
  325SOL     OW 1112   0.590   1.487   2.353
  325SOL    HW1 1113   0.632   1.429   2.283
  325SOL    HW2 1114   0.546   1.566   2.309
  326SOL     OW 1115   0.255   1.348   2.152
  326SOL    HW1 1116   0.159   1.349   2.125
  326SOL    HW2 1117   0.267   1.401   2.236
  327SOL     OW 1118   0.075   0.345   1.895
  327SOL    HW1 1119  -0.017   0.317   1.866
  327SOL    HW2 1120   0.106   0.422   1.839
  328SOL     OW 1121   0.072   0.166   2.180
  328SOL    HW1 1122   0.055   0.249   2.126
  328SOL    HW2 1123   0.162   0.129   2.158
  329SOL     OW 1124   1.183   1.335   1.981
  329SOL    HW1 1125   1.084   1.324   1.983
  329SOL    HW2 1126   1.217   1.350   2.074
  330SOL     OW 1127   1.493   1.767   2.821
  330SOL    HW1 1128   1.526   1.831   2.752
  330SOL    HW2 1129   1.559   1.761   2.896
  331SOL     OW 1130   1.225   0.325   2.311
  331SOL    HW1 1131   1.290   0.251   2.300
  331SOL    HW2 1132   1.245   0.375   2.395
  332SOL     OW 1133   0.594   0.745   2.514
  332SOL    HW1 1134   0.644   0.830   2.495
  332SOL    HW2 1135   0.506   0.747   2.466
  333SOL     OW 1136   0.859   1.374   1.878
  333SOL    HW1 1137   0.813   1.389   1.966
  333SOL    HW2 1138   0.903   1.459   1.848
  334SOL     OW 1139   0.661   1.790   2.815
  334SOL    HW1 1140   0.615   1.878   2.802
  334SOL    HW2 1141   0.760   1.802   2.808
  335SOL     OW 1142   0.859   0.956   2.723
  335SOL    HW1 1143   0.913   0.887   2.771
  335SOL    HW2 1144   0.827   1.025   2.789
  336SOL     OW 1145   1.083   0.984   1.949
  336SOL    HW1 1146   1.060   1.037   1.867
  336SOL    HW2 1147   1.164   0.928   1.930
  337SOL     OW 1148   1.861   1.569   2.713
  337SOL    HW1 1149   1.790   1.557   2.643
  337SOL    HW2 1150   1.862   1.490   2.773
  338SOL     OW 1151   0.079   1.240   2.515
  338SOL    HW1 1152   0.078   1.193   2.603
  338SOL    HW2 1153   0.161   1.212   2.464
  339SOL     OW 1154   0.428   0.424   2.382
  339SOL    HW1 1155   0.458   0.352   2.320
  339SOL    HW2 1156   0.389   0.384   2.465
  340SOL     OW 1157   0.812   1.586   2.549
  340SOL    HW1 1158   0.844   1.596   2.455
  340SOL    HW2 1159   0.733   1.524   2.551
  341SOL     OW 1160   0.770   1.330   2.163
  341SOL    HW1 1161   0.724   1.243   2.180
  341SOL    HW2 1162   0.861   1.327   2.204
  342SOL     OW 1163   1.352   0.052   2.030
  342SOL    HW1 1164   1.387   0.011   1.946
  342SOL    HW2 1165   1.262   0.014   2.050
  343SOL     OW 1166   1.300   0.453   2.553
  343SOL    HW1 1167   1.241   0.533   2.557
  343SOL    HW2 1168   1.315   0.418   2.646
  344SOL     OW 1169   1.593   0.221   2.744
  344SOL    HW1 1170   1.509   0.220   2.798
  344SOL    HW2 1171   1.595   0.304   2.688
  345SOL     OW 1172   0.039   1.077   2.162
  345SOL    HW1 1173   0.138   1.066   2.153
  345SOL    HW2 1174  -0.001   0.991   2.194
  346SOL     OW 1175   0.875   1.646   2.199
  346SOL    HW1 1176   0.798   1.611   2.145
  346SOL    HW2 1177   0.843   1.717   2.261
  347SOL     OW 1178   0.230   2.490   0.113
  347SOL    HW1 1179   0.137   2.488   0.150
  347SOL    HW2 1180   0.231   2.451   0.021
  348SOL     OW 1181   0.225   2.137   0.996
  348SOL    HW1 1182   0.260   2.120   1.088
  348SOL    HW2 1183   0.137   2.092   0.984
  349SOL     OW 1184   0.019   2.230   0.647
  349SOL    HW1 1185  -0.063   2.273   0.686
  349SOL    HW2 1186  -0.009   2.157   0.584
  350SOL     OW 1187   0.569   3.137   1.165
  350SOL    HW1 1188   0.476   3.130   1.128
  350SOL    HW2 1189   0.580   3.226   1.209
  351SOL     OW 1190   1.555   3.373   0.703
  351SOL    HW1 1191   1.498   3.357   0.784
  351SOL    HW2 1192   1.496   3.383   0.623
  352SOL     OW 1193   1.135   2.565   0.717
  352SOL    HW1 1194   1.192   2.643   0.692
  352SOL    HW2 1195   1.075   2.591   0.793
  353SOL     OW 1196   1.755   2.469   0.231
  353SOL    HW1 1197   1.743   2.456   0.132
  353SOL    HW2 1198   1.725   2.388   0.280
  354SOL     OW 1199   0.768   3.006   1.023
  354SOL    HW1 1200   0.690   3.023   1.083
  354SOL    HW2 1201   0.802   3.093   0.987
  355SOL     OW 1202   0.850   2.660   1.823
  355SOL    HW1 1203   0.846   2.736   1.888
  355SOL    HW2 1204   0.872   2.696   1.732
  356SOL     OW 1205   0.685   2.874   0.665
  356SOL    HW1 1206   0.754   2.858   0.735
  356SOL    HW2 1207   0.612   2.931   0.703
  357SOL     OW 1208   0.686   3.023   1.803
  357SOL    HW1 1209   0.746   3.102   1.817
  357SOL    HW2 1210   0.600   3.054   1.762
  358SOL     OW 1211   0.335   3.297   1.061
  358SOL    HW1 1212   0.257   3.266   1.008
  358SOL    HW2 1213   0.393   3.355   1.004
  359SOL     OW 1214   1.460   3.367   1.339
  359SOL    HW1 1215   1.484   3.461   1.365
  359SOL    HW2 1216   1.444   3.313   1.421
  360SOL     OW 1217   0.438   2.254   1.499
  360SOL    HW1 1218   0.520   2.198   1.508
  360SOL    HW2 1219   0.357   2.196   1.503
  361SOL     OW 1220   1.603   2.309   0.737
  361SOL    HW1 1221   1.529   2.355   0.687
  361SOL    HW2 1222   1.654   2.377   0.790
  362SOL     OW 1223   0.231   3.575   0.483
  362SOL    HW1 1224   0.265   3.652   0.537
  362SOL    HW2 1225   0.275   3.575   0.393
  363SOL     OW 1226   0.230   3.296   0.538
  363SOL    HW1 1227   0.204   3.392   0.538
  363SOL    HW2 1228   0.159   3.242   0.583
  364SOL     OW 1229   0.240   2.953   0.886
  364SOL    HW1 1230   0.254   2.869   0.938
  364SOL    HW2 1231   0.185   3.017   0.941
  365SOL     OW 1232   0.620   3.648   1.439
  365SOL    HW1 1233   0.528   3.631   1.474
  365SOL    HW2 1234   0.648   3.740   1.465
  366SOL     OW 1235   0.606   2.826   0.123
  366SOL    HW1 1236   0.613   2.910   0.069
  366SOL    HW2 1237   0.652   2.839   0.211
  367SOL     OW 1238   1.594   1.976   1.480
  367SOL    HW1 1239   1.576   2.043   1.408
  367SOL    HW2 1240   1.591   2.022   1.569
  368SOL     OW 1241   0.122   2.505   0.563
  368SOL    HW1 1242   0.077   2.417   0.580
  368SOL    HW2 1243   0.121   2.559   0.647
  369SOL     OW 1244   1.842   3.629   0.359
  369SOL    HW1 1245   1.896   3.600   0.439
  369SOL    HW2 1246   1.872   3.719   0.330
  370SOL     OW 1247   1.689   2.784   0.612
  370SOL    HW1 1248   1.784   2.755   0.620
  370SOL    HW2 1249   1.681   2.849   0.537
  371SOL     OW 1250   1.641   2.970   0.432
  371SOL    HW1 1251   1.727   2.972   0.380
  371SOL    HW2 1252   1.655   3.017   0.520
  372SOL     OW 1253   0.113   2.599   1.597
  372SOL    HW1 1254   0.201   2.586   1.642
  372SOL    HW2 1255   0.100   2.696   1.575
  373SOL     OW 1256   0.613   3.227   0.726
  373SOL    HW1 1257   0.564   3.140   0.735
  373SOL    HW2 1258   0.590   3.270   0.639
  374SOL     OW 1259   1.293   3.090   1.423
  374SOL    HW1 1260   1.330   3.017   1.365
  374SOL    HW2 1261   1.345   3.095   1.508
  375SOL     OW 1262   0.809   1.866   0.502
  375SOL    HW1 1263   0.849   1.957   0.493
  375SOL    HW2 1264   0.709   1.874   0.508
  376SOL     OW 1265   0.197   2.838   1.264
  376SOL    HW1 1266   0.286   2.793   1.250
  376SOL    HW2 1267   0.124   2.773   1.245
  377SOL     OW 1268   1.525   2.861   0.190
  377SOL    HW1 1269   1.462   2.785   0.203
  377SOL    HW2 1270   1.573   2.879   0.276
  378SOL     OW 1271   1.187   3.654   1.616
  378SOL    HW1 1272   1.211   3.714   1.540
  378SOL    HW2 1273   1.194   3.559   1.586
  379SOL     OW 1274   0.317   2.113   1.801
  379SOL    HW1 1275   0.388   2.184   1.807
  379SOL    HW2 1276   0.229   2.152   1.829
  380SOL     OW 1277   1.466   3.279   0.953
  380SOL    HW1 1278   1.407   3.285   1.033
  380SOL    HW2 1279   1.451   3.191   0.907
  381SOL     OW 1280   1.667   3.576   0.572
  381SOL    HW1 1281   1.626   3.553   0.484
  381SOL    HW2 1282   1.649   3.502   0.637
  382SOL     OW 1283   0.598   2.591   0.270
  382SOL    HW1 1284   0.622   2.660   0.202
  382SOL    HW2 1285   0.520   2.624   0.324
  383SOL     OW 1286   1.281   2.207   0.944
  383SOL    HW1 1287   1.195   2.157   0.931
  383SOL    HW2 1288   1.343   2.153   1.000
  384SOL     OW 1289   1.576   3.524   0.307
  384SOL    HW1 1290   1.665   3.570   0.310
  384SOL    HW2 1291   1.555   3.500   0.212
  385SOL     OW 1292   0.807   2.467   1.465
  385SOL    HW1 1293   0.760   2.464   1.554
  385SOL    HW2 1294   0.756   2.412   1.399
  386SOL     OW 1295   1.394   2.331   1.674
  386SOL    HW1 1296   1.374   2.374   1.762
  386SOL    HW2 1297   1.472   2.269   1.683
  387SOL     OW 1298   0.973   2.752   1.572
  387SOL    HW1 1299   1.019   2.668   1.543
  387SOL    HW2 1300   0.917   2.786   1.497
  388SOL     OW 1301   0.991   2.272   1.242
  388SOL    HW1 1302   0.914   2.306   1.296
  388SOL    HW2 1303   0.957   2.221   1.163
  389SOL     OW 1304   1.041   2.563   0.429
  389SOL    HW1 1305   1.067   2.559   0.525
  389SOL    HW2 1306   0.956   2.512   0.415
  390SOL     OW 1307   0.076   2.673   0.789
  390SOL    HW1 1308   0.175   2.661   0.798
  390SOL    HW2 1309   0.052   2.768   0.810
  391SOL     OW 1310   0.130   3.683   1.571
  391SOL    HW1 1311   0.120   3.668   1.670
  391SOL    HW2 1312   0.044   3.719   1.535
  392SOL     OW 1313   0.865   2.210   0.195
  392SOL    HW1 1314   0.924   2.273   0.146
  392SOL    HW2 1315   0.884   2.116   0.166
  393SOL     OW 1316   1.719   2.447   1.831
  393SOL    HW1 1317   1.693   2.536   1.795
  393SOL    HW2 1318   1.717   2.379   1.758
  394SOL     OW 1319   1.362   3.006   0.545
  394SOL    HW1 1320   1.445   2.977   0.497
  394SOL    HW2 1321   1.313   3.073   0.489
  395SOL     OW 1322   0.550   2.058   0.885
  395SOL    HW1 1323   0.545   2.053   0.985
  395SOL    HW2 1324   0.552   2.154   0.856
  396SOL     OW 1325   1.008   3.318   0.477
  396SOL    HW1 1326   0.962   3.390   0.425
  396SOL    HW2 1327   1.004   3.338   0.575
  397SOL     OW 1328   0.351   3.663   0.853
  397SOL    HW1 1329   0.401   3.577   0.859
  397SOL    HW2 1330   0.416   3.740   0.850
  398SOL     OW 1331   1.795   2.928   0.873
  398SOL    HW1 1332   1.733   2.913   0.797
  398SOL    HW2 1333   1.743   2.939   0.958
  399SOL     OW 1334   1.227   3.412   1.506
  399SOL    HW1 1335   1.233   3.335   1.570
  399SOL    HW2 1336   1.175   3.386   1.426
  400SOL     OW 1337   0.321   2.805   0.242
  400SOL    HW1 1338   0.403   2.844   0.200
  400SOL    HW2 1339   0.294   2.723   0.193
  401SOL     OW 1340   1.458   2.597   0.728
  401SOL    HW1 1341   1.453   2.532   0.803
  401SOL    HW2 1342   1.538   2.656   0.741
  402SOL     OW 1343   0.461   3.128   1.727
  402SOL    HW1 1344   0.411   3.129   1.641
  402SOL    HW2 1345   0.398   3.110   1.803
  403SOL     OW 1346   1.111   3.638   0.237
  403SOL    HW1 1347   1.051   3.576   0.287
  403SOL    HW2 1348   1.142   3.594   0.152
  404SOL     OW 1349   0.202   2.147   1.498
  404SOL    HW1 1350   0.122   2.207   1.485
  404SOL    HW2 1351   0.192   2.098   1.584
  405SOL     OW 1352   1.632   3.239   0.081
  405SOL    HW1 1353   1.600   3.333   0.071
  405SOL    HW2 1354   1.556   3.176   0.069
  406SOL     OW 1355   0.464   3.605   0.323
  406SOL    HW1 1356   0.497   3.644   0.409
  406SOL    HW2 1357   0.540   3.598   0.258
  407SOL     OW 1358   1.400   1.969   0.426
  407SOL    HW1 1359   1.376   1.932   0.336
  407SOL    HW2 1360   1.499   1.985   0.430
  408SOL     OW 1361   0.249   3.647   1.241
  408SOL    HW1 1362   0.306   3.582   1.291
  408SOL    HW2 1363   0.233   3.614   1.148
  409SOL     OW 1364   0.940   3.560   0.904
  409SOL    HW1 1365   1.020   3.503   0.925
  409SOL    HW2 1366   0.891   3.520   0.827
  410SOL     OW 1367   0.382   2.562   0.480
  410SOL    HW1 1368   0.427   2.472   0.477
  410SOL    HW2 1369   0.288   2.551   0.513
  411SOL     OW 1370   1.547   2.084   1.729
  411SOL    HW1 1371   1.542   2.121   1.821
  411SOL    HW2 1372   1.475   2.015   1.717
  412SOL     OW 1373   0.614   1.984   0.117
  412SOL    HW1 1374   0.712   1.962   0.124
  412SOL    HW2 1375   0.583   1.967   0.024
  413SOL     OW 1376   0.781   2.126   1.749
  413SOL    HW1 1377   0.848   2.065   1.792
  413SOL    HW2 1378   0.708   2.145   1.814
  414SOL     OW 1379   0.888   3.376   1.195
  414SOL    HW1 1380   0.865   3.351   1.101
  414SOL    HW2 1381   0.949   3.307   1.234
  415SOL     OW 1382   1.351   2.452   1.433
  415SOL    HW1 1383   1.379   2.409   1.518
  415SOL    HW2 1384   1.376   2.548   1.434
  416SOL     OW 1385   0.803   3.264   0.924
  416SOL    HW1 1386   0.893   3.278   0.882
  416SOL    HW2 1387   0.732   3.266   0.853
  417SOL     OW 1388   0.922   2.365   0.899
  417SOL    HW1 1389   0.897   2.356   0.803
  417SOL    HW2 1390   0.970   2.283   0.930
  418SOL     OW 1391   0.539   1.926   0.512
  418SOL    HW1 1392   0.458   1.927   0.570
  418SOL    HW2 1393   0.542   2.009   0.457
  419SOL     OW 1394   1.434   3.050   0.041
  419SOL    HW1 1395   1.466   2.974   0.098
  419SOL    HW2 1396   1.342   3.077   0.071
  420SOL     OW 1397   0.297   1.897   0.171
  420SOL    HW1 1398   0.346   1.981   0.150
  420SOL    HW2 1399   0.359   1.832   0.216
  421SOL     OW 1400   0.935   2.098   0.480
  421SOL    HW1 1401   0.887   2.139   0.402
  421SOL    HW2 1402   1.034   2.096   0.461
  422SOL     OW 1403   1.076   2.545   1.464
  422SOL    HW1 1404   0.996   2.484   1.467
  422SOL    HW2 1405   1.157   2.492   1.440
  423SOL     OW 1406   1.227   3.432   0.793
  423SOL    HW1 1407   1.248   3.506   0.728
  423SOL    HW2 1408   1.295   3.432   0.866
  424SOL     OW 1409   0.459   3.014   0.741
  424SOL    HW1 1410   0.388   2.987   0.806
  424SOL    HW2 1411   0.433   2.986   0.648
  425SOL     OW 1412   1.271   3.659   0.591
  425SOL    HW1 1413   1.315   3.723   0.527
  425SOL    HW2 1414   1.221   3.711   0.661
  426SOL     OW 1415   1.032   2.411   0.016
  426SOL    HW1 1416   0.991   2.493  -0.023
  426SOL    HW2 1417   1.096   2.437   0.089
  427SOL     OW 1418   0.078   2.418   1.386
  427SOL    HW1 1419   0.170   2.417   1.345
  427SOL    HW2 1420   0.072   2.492   1.453
  428SOL     OW 1421   0.561   2.084   1.147
  428SOL    HW1 1422   0.599   2.000   1.184
  428SOL    HW2 1423   0.473   2.103   1.191
  429SOL     OW 1424   0.866   2.316   0.642
  429SOL    HW1 1425   0.834   2.388   0.580
  429SOL    HW2 1426   0.890   2.235   0.589
  430SOL     OW 1427   1.017   1.901   0.753
  430SOL    HW1 1428   0.945   1.906   0.684
  430SOL    HW2 1429   0.993   1.832   0.822
  431SOL     OW 1430   1.429   3.035   0.867
  431SOL    HW1 1431   1.374   2.951   0.860
  431SOL    HW2 1432   1.455   3.064   0.775
  432SOL     OW 1433   1.466   2.452   0.992
  432SOL    HW1 1434   1.436   2.357   0.999
  432SOL    HW2 1435   1.539   2.468   1.058
  433SOL     OW 1436   1.857   2.695   0.377
  433SOL    HW1 1437   1.899   2.631   0.441
  433SOL    HW2 1438   1.819   2.644   0.299
  434SOL     OW 1439   0.488   3.247   0.174
  434SOL    HW1 1440   0.401   3.232   0.221
  434SOL    HW2 1441   0.471   3.273   0.079
  435SOL     OW 1442   1.664   3.142   0.657
  435SOL    HW1 1443   1.763   3.150   0.671
  435SOL    HW2 1444   1.619   3.226   0.688
  436SOL     OW 1445   1.390   2.437   0.078
  436SOL    HW1 1446   1.336   2.416   0.159
  436SOL    HW2 1447   1.481   2.396   0.087
  437SOL     OW 1448   0.527   2.118   0.328
  437SOL    HW1 1449   0.554   2.059   0.253
  437SOL    HW2 1450   0.527   2.213   0.297
  438SOL     OW 1451   1.754   3.085   1.588
  438SOL    HW1 1452   1.845   3.046   1.575
  438SOL    HW2 1453   1.762   3.181   1.612
  439SOL     OW 1454   1.064   3.209   1.340
  439SOL    HW1 1455   0.984   3.186   1.395
  439SOL    HW2 1456   1.147   3.183   1.389
  440SOL     OW 1457   1.592   3.491   1.625
  440SOL    HW1 1458   1.619   3.525   1.535
  440SOL    HW2 1459   1.671   3.453   1.671
  441SOL     OW 1460   1.111   3.057   1.100
  441SOL    HW1 1461   1.071   3.101   1.181
  441SOL    HW2 1462   1.070   3.094   1.017
  442SOL     OW 1463   1.638   2.961   1.079
  442SOL    HW1 1464   1.643   3.042   1.138
  442SOL    HW2 1465   1.552   2.963   1.028
  443SOL     OW 1466   0.915   1.951   1.402
  443SOL    HW1 1467   0.940   1.931   1.307
  443SOL    HW2 1468   0.987   2.007   1.444
  444SOL     OW 1469   0.980   2.978   1.719
  444SOL    HW1 1470   0.881   2.984   1.729
  444SOL    HW2 1471   1.003   2.898   1.663
  445SOL     OW 1472   0.705   2.912   0.368
  445SOL    HW1 1473   0.691   2.919   0.467
  445SOL    HW2 1474   0.789   2.861   0.350
  446SOL     OW 1475   0.410   2.675   1.251
  446SOL    HW1 1476   0.496   2.687   1.301
  446SOL    HW2 1477   0.368   2.588   1.278
  447SOL     OW 1478   1.274   2.248   1.262
  447SOL    HW1 1479   1.295   2.322   1.326
  447SOL    HW2 1480   1.185   2.265   1.219
  448SOL     OW 1481   0.064   3.426   1.331
  448SOL    HW1 1482   0.018   3.508   1.297
  448SOL    HW2 1483   0.162   3.445   1.340
  449SOL     OW 1484   0.367   2.962   0.501
  449SOL    HW1 1485   0.360   3.045   0.445
  449SOL    HW2 1486   0.371   2.882   0.441
  450SOL     OW 1487   0.566   2.399   0.865
  450SOL    HW1 1488   0.578   2.465   0.791
  450SOL    HW2 1489   0.612   2.433   0.948
  451SOL     OW 1490   1.252   3.210   0.388
  451SOL    HW1 1491   1.302   3.287   0.428
  451SOL    HW2 1492   1.157   3.212   0.420
  452SOL     OW 1493   1.272   3.307   1.142
  452SOL    HW1 1494   1.319   3.320   1.229
  452SOL    HW2 1495   1.206   3.233   1.151
  453SOL     OW 1496   1.582   2.501   0.472
  453SOL    HW1 1497   1.551   2.562   0.545
  453SOL    HW2 1498   1.632   2.553   0.403
  454SOL     OW 1499   0.354   3.372   1.329
  454SOL    HW1 1500   0.333   3.328   1.242
  454SOL    HW2 1501   0.451   3.398   1.332
  455SOL     OW 1502   0.402   2.613   1.598
  455SOL    HW1 1503   0.470   2.668   1.551
  455SOL    HW2 1504   0.442   2.525   1.625
  456SOL     OW 1505   1.587   2.641   1.670
  456SOL    HW1 1506   1.495   2.679   1.665
  456SOL    HW2 1507   1.647   2.688   1.605
  457SOL     OW 1508   1.013   1.967   1.770
  457SOL    HW1 1509   1.019   2.052   1.718
  457SOL    HW2 1510   1.045   1.891   1.713
  458SOL     OW 1511   0.504   1.912   1.740
  458SOL    HW1 1512   0.462   1.855   1.670
  458SOL    HW2 1513   0.438   1.981   1.772
  459SOL     OW 1514   0.573   2.732   1.029
  459SOL    HW1 1515   0.617   2.821   1.020
  459SOL    HW2 1516   0.510   2.732   1.106
  460SOL     OW 1517   1.360   2.724   1.045
  460SOL    HW1 1518   1.285   2.724   0.979
  460SOL    HW2 1519   1.397   2.632   1.054
  461SOL     OW 1520   1.209   2.387   0.275
  461SOL    HW1 1521   1.222   2.303   0.329
  461SOL    HW2 1522   1.180   2.461   0.335
  462SOL     OW 1523   0.307   2.075   1.231
  462SOL    HW1 1524   0.284   2.112   1.321
  462SOL    HW2 1525   0.277   1.980   1.225
  463SOL     OW 1526   0.037   3.172   1.282
  463SOL    HW1 1527   0.090   3.123   1.350
  463SOL    HW2 1528   0.059   3.270   1.287
  464SOL     OW 1529   0.732   2.496   1.064
  464SOL    HW1 1530   0.791   2.470   0.988
  464SOL    HW2 1531   0.704   2.592   1.053
  465SOL     OW 1532   1.728   2.797   1.854
  465SOL    HW1 1533   1.682   2.790   1.765
  465SOL    HW2 1534   1.666   2.841   1.920
  466SOL     OW 1535   0.307   1.925   0.618
  466SOL    HW1 1536   0.296   2.019   0.651
  466SOL    HW2 1537   0.302   1.862   0.695
  467SOL     OW 1538   1.622   2.229   0.374
  467SOL    HW1 1539   1.624   2.153   0.438
  467SOL    HW2 1540   1.574   2.306   0.414
  468SOL     OW 1541   1.023   2.628   0.966
  468SOL    HW1 1542   1.038   2.649   1.062
  468SOL    HW2 1543   0.993   2.533   0.957
  469SOL     OW 1544   0.980   3.435   1.700
  469SOL    HW1 1545   0.960   3.479   1.612
  469SOL    HW2 1546   1.019   3.344   1.684
  470SOL     OW 1547   1.859   3.380   1.605
  470SOL    HW1 1548   1.873   3.407   1.510
  470SOL    HW2 1549   1.942   3.402   1.658
  471SOL     OW 1550   0.350   2.760   1.804
  471SOL    HW1 1551   0.426   2.804   1.852
  471SOL    HW2 1552   0.385   2.713   1.722
  472SOL     OW 1553   1.540   2.136   0.125
  472SOL    HW1 1554   1.479   2.061   0.148
  472SOL    HW2 1555   1.562   2.188   0.208
  473SOL     OW 1556   1.303   2.700   0.042
  473SOL    HW1 1557   1.337   2.607   0.057
  473SOL    HW2 1558   1.321   2.727  -0.053
  474SOL     OW 1559   1.068   3.195   0.849
  474SOL    HW1 1560   1.075   3.111   0.794
  474SOL    HW2 1561   1.130   3.264   0.813
  475SOL     OW 1562   0.319   2.672   0.949
  475SOL    HW1 1563   0.412   2.708   0.954
  475SOL    HW2 1564   0.313   2.587   1.001
  476SOL     OW 1565   0.339   2.371   1.006
  476SOL    HW1 1566   0.287   2.288   0.989
  476SOL    HW2 1567   0.416   2.376   0.942
  477SOL     OW 1568   1.138   2.242   1.678
  477SOL    HW1 1569   1.093   2.305   1.742
  477SOL    HW2 1570   1.231   2.273   1.661
  478SOL     OW 1571   1.160   2.069   1.477
  478SOL    HW1 1572   1.160   2.133   1.554
  478SOL    HW2 1573   1.188   2.117   1.394
  479SOL     OW 1574   0.008   3.188   0.200
  479SOL    HW1 1575  -0.085   3.209   0.169
  479SOL    HW2 1576   0.018   3.089   0.213
  480SOL     OW 1577   0.088   3.663   0.927
  480SOL    HW1 1578   0.046   3.577   0.900
  480SOL    HW2 1579   0.182   3.666   0.893
  481SOL     OW 1580   0.504   3.430   0.910
  481SOL    HW1 1581   0.570   3.504   0.919
  481SOL    HW2 1582   0.548   3.351   0.868
  482SOL     OW 1583   1.002   2.658   1.238
  482SOL    HW1 1584   1.043   2.626   1.324
  482SOL    HW2 1585   0.906   2.631   1.235
  483SOL     OW 1586   0.040   2.406   1.114
  483SOL    HW1 1587   0.125   2.373   1.073
  483SOL    HW2 1588   0.053   2.421   1.212
  484SOL     OW 1589   0.189   2.382   1.722
  484SOL    HW1 1590   0.248   2.342   1.652
  484SOL    HW2 1591   0.131   2.453   1.681
  485SOL     OW 1592   1.369   2.812   1.660
  485SOL    HW1 1593   1.408   2.901   1.680
  485SOL    HW2 1594   1.379   2.792   1.563
  486SOL     OW 1595   0.815   2.434   0.325
  486SOL    HW1 1596   0.822   2.345   0.279
  486SOL    HW2 1597   0.721   2.468   0.317
  487SOL     OW 1598   1.657   2.466   1.206
  487SOL    HW1 1599   1.619   2.397   1.268
  487SOL    HW2 1600   1.739   2.430   1.162
  488SOL     OW 1601   0.252   3.426   1.744
  488SOL    HW1 1602   0.222   3.483   1.820
  488SOL    HW2 1603   0.245   3.329   1.770
  489SOL     OW 1604   0.671   2.326   1.269
  489SOL    HW1 1605   0.637   2.237   1.239
  489SOL    HW2 1606   0.697   2.380   1.189
  490SOL     OW 1607   0.930   3.540   1.465
  490SOL    HW1 1608   0.906   3.522   1.370
  490SOL    HW2 1609   0.960   3.634   1.475
  491SOL     OW 1610   0.473   2.362   0.191
  491SOL    HW1 1611   0.534   2.442   0.195
  491SOL    HW2 1612   0.378   2.393   0.198
  492SOL     OW 1613   0.159   2.999   1.466
  492SOL    HW1 1614   0.181   2.938   1.542
  492SOL    HW2 1615   0.169   2.950   1.380
  493SOL     OW 1616   1.347   2.921   1.234
  493SOL    HW1 1617   1.371   2.858   1.160
  493SOL    HW2 1618   1.257   2.961   1.216
  494SOL     OW 1619   1.302   2.717   0.309
  494SOL    HW1 1620   1.216   2.686   0.351
  494SOL    HW2 1621   1.298   2.703   0.210
  495SOL     OW 1622   1.759   3.609   1.154
  495SOL    HW1 1623   1.820   3.639   1.081
  495SOL    HW2 1624   1.721   3.520   1.132
  496SOL     OW 1625   1.252   3.593   1.128
  496SOL    HW1 1626   1.336   3.598   1.074
  496SOL    HW2 1627   1.229   3.497   1.146
  497SOL     OW 1628   0.083   3.120   1.022
  497SOL    HW1 1629   0.078   3.119   1.122
  497SOL    HW2 1630   0.000   3.079   0.984
  498SOL     OW 1631   0.688   3.524   1.716
  498SOL    HW1 1632   0.632   3.605   1.725
  498SOL    HW2 1633   0.740   3.528   1.630
  499SOL     OW 1634   0.903   1.948   0.133
  499SOL    HW1 1635   0.954   1.949   0.047
  499SOL    HW2 1636   0.959   1.906   0.204
  500SOL     OW 1637   1.726   1.997   0.523
  500SOL    HW1 1638   1.799   1.980   0.456
  500SOL    HW2 1639   1.695   1.910   0.561
  501SOL     OW 1640   1.388   3.435   0.477
  501SOL    HW1 1641   1.455   3.447   0.403
  501SOL    HW2 1642   1.348   3.524   0.500
  502SOL     OW 1643   0.130   3.656   1.851
  502SOL    HW1 1644   0.089   3.582   1.904
  502SOL    HW2 1645   0.194   3.707   1.909
  503SOL     OW 1646   1.280   2.789   0.672
  503SOL    HW1 1647   1.340   2.708   0.674
  503SOL    HW2 1648   1.320   2.858   0.612
  504SOL     OW 1649   0.830   3.135   1.422
  504SOL    HW1 1650   0.825   3.168   1.517
  504SOL    HW2 1651   0.744   3.154   1.376
  505SOL     OW 1652   0.672   3.478   0.154
  505SOL    HW1 1653   0.681   3.488   0.055
  505SOL    HW2 1654   0.632   3.389   0.175
  506SOL     OW 1655   1.650   3.582   1.394
  506SOL    HW1 1656   1.703   3.592   1.310
  506SOL    HW2 1657   1.623   3.672   1.428
  507SOL     OW 1658   1.841   2.037   0.963
  507SOL    HW1 1659   1.880   1.952   0.927
  507SOL    HW2 1660   1.743   2.039   0.944
  508SOL     OW 1661   0.263   2.188   0.720
  508SOL    HW1 1662   0.184   2.239   0.686
  508SOL    HW2 1663   0.254   2.173   0.818
  509SOL     OW 1664   1.194   3.474   0.031
  509SOL    HW1 1665   1.200   3.381   0.068
  509SOL    HW2 1666   1.135   3.474  -0.049
  510SOL     OW 1667   0.822   2.864   1.372
  510SOL    HW1 1668   0.862   2.863   1.280
  510SOL    HW2 1669   0.832   2.956   1.412
  511SOL     OW 1670   0.916   2.772   0.291
  511SOL    HW1 1671   0.979   2.810   0.223
  511SOL    HW2 1672   0.956   2.689   0.330
  512SOL     OW 1673   1.504   3.469   0.044
  512SOL    HW1 1674   1.412   3.506   0.051
  512SOL    HW2 1675   1.542   3.489  -0.046
  513SOL     OW 1676   0.372   3.150   1.490
  513SOL    HW1 1677   0.359   3.243   1.456
  513SOL    HW2 1678   0.288   3.098   1.477
  514SOL     OW 1679   1.614   3.154   1.289
  514SOL    HW1 1680   1.674   3.157   1.369
  514SOL    HW2 1681   1.539   3.218   1.302
  515SOL     OW 1682   1.039   2.960   0.696
  515SOL    HW1 1683   0.969   2.913   0.750
  515SOL    HW2 1684   1.098   2.892   0.653
  516SOL     OW 1685   1.014   2.098   0.971
  516SOL    HW1 1686   1.006   2.062   0.878
  516SOL    HW2 1687   1.012   2.022   1.036
  517SOL     OW 1688   0.590   3.349   0.491
  517SOL    HW1 1689   0.632   3.291   0.421
  517SOL    HW2 1690   0.546   3.428   0.447
  518SOL     OW 1691   1.709   2.247   1.381
  518SOL    HW1 1692   1.782   2.316   1.385
  518SOL    HW2 1693   1.737   2.172   1.322
  519SOL     OW 1694   0.255   3.210   0.290
  519SOL    HW1 1695   0.159   3.211   0.263
  519SOL    HW2 1696   0.267   3.263   0.374
  520SOL     OW 1697   0.105   2.875   1.726
  520SOL    HW1 1698   0.028   2.842   1.780
  520SOL    HW2 1699   0.190   2.845   1.768
  521SOL     OW 1700   0.672   2.065   1.489
  521SOL    HW1 1701   0.762   2.049   1.449
  521SOL    HW2 1702   0.680   2.070   1.588
  522SOL     OW 1703   0.075   2.207   0.033
  522SOL    HW1 1704  -0.017   2.179   0.004
  522SOL    HW2 1705   0.106   2.284  -0.023
  523SOL     OW 1706   1.440   2.718   1.398
  523SOL    HW1 1707   1.383   2.770   1.335
  523SOL    HW2 1708   1.536   2.730   1.374
  524SOL     OW 1709   0.072   2.028   0.318
  524SOL    HW1 1710   0.055   2.111   0.264
  524SOL    HW2 1711   0.162   1.991   0.296
  525SOL     OW 1712   1.183   3.197   0.119
  525SOL    HW1 1713   1.084   3.186   0.121
  525SOL    HW2 1714   1.217   3.212   0.212
  526SOL     OW 1715   0.613   2.704   1.431
  526SOL    HW1 1716   0.669   2.785   1.414
  526SOL    HW2 1717   0.672   2.624   1.434
  527SOL     OW 1718   1.493   3.629   0.959
  527SOL    HW1 1719   1.526   3.693   0.890
  527SOL    HW2 1720   1.559   3.623   1.034
  528SOL     OW 1721   0.716   2.427   1.708
  528SOL    HW1 1722   0.735   2.492   1.782
  528SOL    HW2 1723   0.776   2.347   1.717
  529SOL     OW 1724   1.450   3.082   1.633
  529SOL    HW1 1725   1.441   3.072   1.732
  529SOL    HW2 1726   1.546   3.075   1.607
  530SOL     OW 1727   0.390   3.603   1.560
  530SOL    HW1 1728   0.299   3.644   1.558
  530SOL    HW2 1729   0.383   3.509   1.592
  531SOL     OW 1730   1.674   2.745   1.254
  531SOL    HW1 1731   1.647   2.656   1.217
  531SOL    HW2 1732   1.675   2.813   1.181
  532SOL     OW 1733   1.225   2.187   0.449
  532SOL    HW1 1734   1.290   2.113   0.438
  532SOL    HW2 1735   1.245   2.237   0.533
  533SOL     OW 1736   0.594   2.607   0.652
  533SOL    HW1 1737   0.644   2.692   0.633
  533SOL    HW2 1738   0.506   2.609   0.604
  534SOL     OW 1739   1.777   2.204   1.642
  534SOL    HW1 1740   1.760   2.235   1.548
  534SOL    HW2 1741   1.693   2.167   1.680
  535SOL     OW 1742   1.730   2.796   1.517
  535SOL    HW1 1743   1.768   2.887   1.532
  535SOL    HW2 1744   1.722   2.779   1.418
  536SOL     OW 1745   0.859   3.236   0.016
  536SOL    HW1 1746   0.813   3.251   0.104
  536SOL    HW2 1747   0.903   3.321  -0.014
  537SOL     OW 1748   0.661   3.652   0.953
  537SOL    HW1 1749   0.615   3.740   0.940
  537SOL    HW2 1750   0.760   3.664   0.946
  538SOL     OW 1751   0.859   2.818   0.861
  538SOL    HW1 1752   0.913   2.749   0.909
  538SOL    HW2 1753   0.827   2.887   0.927
  539SOL     OW 1754   1.083   2.846   0.087
  539SOL    HW1 1755   1.060   2.899   0.005
  539SOL    HW2 1756   1.164   2.790   0.068
  540SOL     OW 1757   1.861   3.431   0.851
  540SOL    HW1 1758   1.790   3.419   0.781
  540SOL    HW2 1759   1.862   3.352   0.911
  541SOL     OW 1760   0.221   3.176   1.844
  541SOL    HW1 1761   0.156   3.103   1.823
  541SOL    HW2 1762   0.225   3.190   1.942
  542SOL     OW 1763   0.079   3.102   0.653
  542SOL    HW1 1764   0.078   3.055   0.741
  542SOL    HW2 1765   0.161   3.074   0.602
  543SOL     OW 1766   0.672   3.253   1.624
  543SOL    HW1 1767   0.594   3.203   1.662
  543SOL    HW2 1768   0.669   3.348   1.655
  544SOL     OW 1769   1.824   2.054   1.227
  544SOL    HW1 1770   1.820   1.964   1.271
  544SOL    HW2 1771   1.827   2.043   1.128
  545SOL     OW 1772   0.428   2.286   0.520
  545SOL    HW1 1773   0.458   2.214   0.458
  545SOL    HW2 1774   0.389   2.246   0.603
  546SOL     OW 1775   1.705   3.349   1.104
  546SOL    HW1 1776   1.612   3.324   1.077
  546SOL    HW2 1777   1.731   3.299   1.186
  547SOL     OW 1778   0.317   2.409   1.280
  547SOL    HW1 1779   0.355   2.350   1.352
  547SOL    HW2 1780   0.357   2.383   1.192
  548SOL     OW 1781   0.812   3.448   0.687
  548SOL    HW1 1782   0.844   3.458   0.593
  548SOL    HW2 1783   0.733   3.386   0.689
  549SOL     OW 1784   1.424   2.076   1.112
  549SOL    HW1 1785   1.476   2.011   1.167
  549SOL    HW2 1786   1.375   2.139   1.173
  550SOL     OW 1787   1.001   1.896   1.154
  550SOL    HW1 1788   0.938   1.824   1.123
  550SOL    HW2 1789   1.094   1.860   1.154
  551SOL     OW 1790   0.770   3.192   0.301
  551SOL    HW1 1791   0.724   3.105   0.318
  551SOL    HW2 1792   0.861   3.189   0.342
  552SOL     OW 1793   0.618   3.429   1.284
  552SOL    HW1 1794   0.613   3.511   1.341
  552SOL    HW2 1795   0.707   3.426   1.239
  553SOL     OW 1796   1.352   1.914   0.168
  553SOL    HW1 1797   1.387   1.873   0.084
  553SOL    HW2 1798   1.262   1.876   0.188
  554SOL     OW 1799   1.300   2.315   0.691
  554SOL    HW1 1800   1.241   2.395   0.695
  554SOL    HW2 1801   1.315   2.280   0.784
  555SOL     OW 1802   1.593   2.083   0.882
  555SOL    HW1 1803   1.509   2.082   0.936
  555SOL    HW2 1804   1.595   2.166   0.826
  556SOL     OW 1805   0.039   2.939   0.300
  556SOL    HW1 1806   0.138   2.928   0.291
  556SOL    HW2 1807  -0.001   2.853   0.332
  557SOL     OW 1808   0.875   3.508   0.337
  557SOL    HW1 1809   0.798   3.473   0.283
  557SOL    HW2 1810   0.843   3.579   0.399
  558SOL     OW 1811   0.230   2.490   1.975
  558SOL    HW1 1812   0.137   2.488   2.012
  558SOL    HW2 1813   0.231   2.451   1.883
  559SOL     OW 1814   0.225   2.137   2.858
  559SOL    HW1 1815   0.260   2.120   2.950
  559SOL    HW2 1816   0.137   2.092   2.846
  560SOL     OW 1817   0.019   2.230   2.509
  560SOL    HW1 1818  -0.063   2.273   2.548
  560SOL    HW2 1819  -0.009   2.157   2.446
  561SOL     OW 1820   1.555   3.373   2.565
  561SOL    HW1 1821   1.498   3.357   2.646
  561SOL    HW2 1822   1.496   3.383   2.485
  562SOL     OW 1823   1.135   2.565   2.579
  562SOL    HW1 1824   1.192   2.643   2.554
  562SOL    HW2 1825   1.075   2.591   2.655
  563SOL     OW 1826   1.755   2.469   2.093
  563SOL    HW1 1827   1.743   2.456   1.994
  563SOL    HW2 1828   1.725   2.388   2.142
  564SOL     OW 1829   0.768   3.006   2.885
  564SOL    HW1 1830   0.690   3.023   2.945
  564SOL    HW2 1831   0.802   3.093   2.849
  565SOL     OW 1832   0.685   2.874   2.527
  565SOL    HW1 1833   0.754   2.858   2.597
  565SOL    HW2 1834   0.612   2.931   2.565
  566SOL     OW 1835   0.335   3.297   2.923
  566SOL    HW1 1836   0.257   3.266   2.870
  566SOL    HW2 1837   0.393   3.355   2.866
  567SOL     OW 1838   1.603   2.309   2.599
  567SOL    HW1 1839   1.529   2.355   2.549
  567SOL    HW2 1840   1.654   2.377   2.652
  568SOL     OW 1841   0.231   3.575   2.345
  568SOL    HW1 1842   0.265   3.652   2.399
  568SOL    HW2 1843   0.275   3.575   2.255
  569SOL     OW 1844   0.230   3.296   2.400
  569SOL    HW1 1845   0.204   3.392   2.400
  569SOL    HW2 1846   0.159   3.242   2.445
  570SOL     OW 1847   0.240   2.953   2.748
  570SOL    HW1 1848   0.254   2.869   2.800
  570SOL    HW2 1849   0.185   3.017   2.803
  571SOL     OW 1850   0.606   2.826   1.985
  571SOL    HW1 1851   0.613   2.910   1.931
  571SOL    HW2 1852   0.652   2.839   2.073
  572SOL     OW 1853   0.122   2.505   2.425
  572SOL    HW1 1854   0.077   2.417   2.442
  572SOL    HW2 1855   0.121   2.559   2.509
  573SOL     OW 1856   1.842   3.629   2.221
  573SOL    HW1 1857   1.896   3.600   2.301
  573SOL    HW2 1858   1.872   3.719   2.192
  574SOL     OW 1859   0.027   3.458   1.979
  574SOL    HW1 1860   0.008   3.362   2.000
  574SOL    HW2 1861  -0.006   3.516   2.054
  575SOL     OW 1862   1.689   2.784   2.474
  575SOL    HW1 1863   1.784   2.755   2.482
  575SOL    HW2 1864   1.681   2.849   2.399
  576SOL     OW 1865   1.641   2.970   2.294
  576SOL    HW1 1866   1.727   2.972   2.242
  576SOL    HW2 1867   1.655   3.017   2.382
  577SOL     OW 1868   0.613   3.227   2.588
  577SOL    HW1 1869   0.564   3.140   2.597
  577SOL    HW2 1870   0.590   3.270   2.501
  578SOL     OW 1871   0.809   1.866   2.364
  578SOL    HW1 1872   0.849   1.957   2.355
  578SOL    HW2 1873   0.709   1.874   2.370
  579SOL     OW 1874   1.525   2.861   2.052
  579SOL    HW1 1875   1.462   2.785   2.065
  579SOL    HW2 1876   1.573   2.879   2.138
  580SOL     OW 1877   1.466   3.279   2.815
  580SOL    HW1 1878   1.407   3.285   2.895
  580SOL    HW2 1879   1.451   3.191   2.769
  581SOL     OW 1880   1.667   3.576   2.434
  581SOL    HW1 1881   1.626   3.553   2.346
  581SOL    HW2 1882   1.649   3.502   2.499
  582SOL     OW 1883   0.598   2.591   2.132
  582SOL    HW1 1884   0.622   2.660   2.064
  582SOL    HW2 1885   0.520   2.624   2.186
  583SOL     OW 1886   1.281   2.207   2.806
  583SOL    HW1 1887   1.195   2.157   2.793
  583SOL    HW2 1888   1.343   2.153   2.862
  584SOL     OW 1889   1.576   3.524   2.169
  584SOL    HW1 1890   1.665   3.570   2.172
  584SOL    HW2 1891   1.555   3.500   2.074
  585SOL     OW 1892   1.041   2.563   2.291
  585SOL    HW1 1893   1.067   2.559   2.387
  585SOL    HW2 1894   0.956   2.512   2.277
  586SOL     OW 1895   0.076   2.673   2.651
  586SOL    HW1 1896   0.175   2.661   2.660
  586SOL    HW2 1897   0.052   2.768   2.672
  587SOL     OW 1898   0.865   2.210   2.057
  587SOL    HW1 1899   0.924   2.273   2.008
  587SOL    HW2 1900   0.884   2.116   2.028
  588SOL     OW 1901   1.362   3.006   2.407
  588SOL    HW1 1902   1.445   2.977   2.359
  588SOL    HW2 1903   1.313   3.073   2.351
  589SOL     OW 1904   0.550   2.058   2.747
  589SOL    HW1 1905   0.545   2.053   2.847
  589SOL    HW2 1906   0.552   2.154   2.718
  590SOL     OW 1907   1.008   3.318   2.339
  590SOL    HW1 1908   0.962   3.390   2.287
  590SOL    HW2 1909   1.004   3.338   2.437
  591SOL     OW 1910   0.351   3.663   2.715
  591SOL    HW1 1911   0.401   3.577   2.721
  591SOL    HW2 1912   0.416   3.740   2.712
  592SOL     OW 1913   1.795   2.928   2.735
  592SOL    HW1 1914   1.733   2.913   2.659
  592SOL    HW2 1915   1.743   2.939   2.820
  593SOL     OW 1916   0.321   2.805   2.104
  593SOL    HW1 1917   0.403   2.844   2.062
  593SOL    HW2 1918   0.294   2.723   2.055
  594SOL     OW 1919   1.458   2.597   2.590
  594SOL    HW1 1920   1.453   2.532   2.665
  594SOL    HW2 1921   1.538   2.656   2.603
  595SOL     OW 1922   1.111   3.638   2.099
  595SOL    HW1 1923   1.051   3.576   2.149
  595SOL    HW2 1924   1.142   3.594   2.014
  596SOL     OW 1925   1.632   3.239   1.943
  596SOL    HW1 1926   1.600   3.333   1.933
  596SOL    HW2 1927   1.556   3.176   1.931
  597SOL     OW 1928   0.464   3.605   2.185
  597SOL    HW1 1929   0.497   3.644   2.271
  597SOL    HW2 1930   0.540   3.598   2.120
  598SOL     OW 1931   1.400   1.969   2.288
  598SOL    HW1 1932   1.376   1.932   2.198
  598SOL    HW2 1933   1.499   1.985   2.292
  599SOL     OW 1934   0.940   3.560   2.766
  599SOL    HW1 1935   1.020   3.503   2.787
  599SOL    HW2 1936   0.891   3.520   2.689
  600SOL     OW 1937   0.382   2.562   2.342
  600SOL    HW1 1938   0.427   2.472   2.339
  600SOL    HW2 1939   0.288   2.551   2.375
  601SOL     OW 1940   0.614   1.984   1.979
  601SOL    HW1 1941   0.712   1.962   1.986
  601SOL    HW2 1942   0.583   1.967   1.886
  602SOL     OW 1943   0.803   3.264   2.786
  602SOL    HW1 1944   0.893   3.278   2.744
  602SOL    HW2 1945   0.732   3.266   2.715
  603SOL     OW 1946   0.922   2.365   2.761
  603SOL    HW1 1947   0.897   2.356   2.665
  603SOL    HW2 1948   0.970   2.283   2.792
  604SOL     OW 1949   0.539   1.926   2.374
  604SOL    HW1 1950   0.458   1.927   2.432
  604SOL    HW2 1951   0.542   2.009   2.319
  605SOL     OW 1952   1.434   3.050   1.903
  605SOL    HW1 1953   1.466   2.974   1.960
  605SOL    HW2 1954   1.342   3.077   1.933
  606SOL     OW 1955   0.297   1.897   2.033
  606SOL    HW1 1956   0.346   1.981   2.012
  606SOL    HW2 1957   0.359   1.832   2.078
  607SOL     OW 1958   0.935   2.098   2.342
  607SOL    HW1 1959   0.887   2.139   2.264
  607SOL    HW2 1960   1.034   2.096   2.323
  608SOL     OW 1961   1.227   3.432   2.655
  608SOL    HW1 1962   1.248   3.506   2.590
  608SOL    HW2 1963   1.295   3.432   2.728
  609SOL     OW 1964   0.459   3.014   2.603
  609SOL    HW1 1965   0.388   2.987   2.668
  609SOL    HW2 1966   0.433   2.986   2.510
  610SOL     OW 1967   1.271   3.659   2.453
  610SOL    HW1 1968   1.315   3.723   2.389
  610SOL    HW2 1969   1.221   3.711   2.523
  611SOL     OW 1970   0.866   2.316   2.504
  611SOL    HW1 1971   0.834   2.388   2.442
  611SOL    HW2 1972   0.890   2.235   2.451
  612SOL     OW 1973   1.017   1.901   2.615
  612SOL    HW1 1974   0.945   1.906   2.546
  612SOL    HW2 1975   0.993   1.832   2.684
  613SOL     OW 1976   1.429   3.035   2.729
  613SOL    HW1 1977   1.374   2.951   2.722
  613SOL    HW2 1978   1.455   3.064   2.637
  614SOL     OW 1979   1.466   2.452   2.854
  614SOL    HW1 1980   1.436   2.357   2.861
  614SOL    HW2 1981   1.539   2.468   2.920
  615SOL     OW 1982   1.857   2.695   2.239
  615SOL    HW1 1983   1.899   2.631   2.303
  615SOL    HW2 1984   1.819   2.644   2.161
  616SOL     OW 1985   0.488   3.247   2.036
  616SOL    HW1 1986   0.401   3.232   2.083
  616SOL    HW2 1987   0.471   3.273   1.941
  617SOL     OW 1988   1.664   3.142   2.519
  617SOL    HW1 1989   1.763   3.150   2.533
  617SOL    HW2 1990   1.619   3.226   2.550
  618SOL     OW 1991   1.390   2.437   1.940
  618SOL    HW1 1992   1.336   2.416   2.021
  618SOL    HW2 1993   1.481   2.396   1.949
  619SOL     OW 1994   0.527   2.118   2.190
  619SOL    HW1 1995   0.554   2.059   2.115
  619SOL    HW2 1996   0.527   2.213   2.159
  620SOL     OW 1997   1.111   3.057   2.962
  620SOL    HW1 1998   1.071   3.101   3.043
  620SOL    HW2 1999   1.070   3.094   2.879
  621SOL     OW 2000   1.638   2.961   2.941
  621SOL    HW1 2001   1.643   3.042   3.000
  621SOL    HW2 2002   1.552   2.963   2.890
  622SOL     OW 2003   0.705   2.912   2.230
  622SOL    HW1 2004   0.691   2.919   2.329
  622SOL    HW2 2005   0.789   2.861   2.212
  623SOL     OW 2006   0.367   2.962   2.363
  623SOL    HW1 2007   0.360   3.045   2.307
  623SOL    HW2 2008   0.371   2.882   2.303
  624SOL     OW 2009   0.566   2.399   2.727
  624SOL    HW1 2010   0.578   2.465   2.653
  624SOL    HW2 2011   0.612   2.433   2.810
  625SOL     OW 2012   1.252   3.210   2.250
  625SOL    HW1 2013   1.302   3.287   2.290
  625SOL    HW2 2014   1.157   3.212   2.282
  626SOL     OW 2015   1.582   2.501   2.334
  626SOL    HW1 2016   1.551   2.562   2.407
  626SOL    HW2 2017   1.632   2.553   2.265
  627SOL     OW 2018   0.573   2.732   2.891
  627SOL    HW1 2019   0.617   2.821   2.882
  627SOL    HW2 2020   0.510   2.732   2.968
  628SOL     OW 2021   1.360   2.724   2.907
  628SOL    HW1 2022   1.285   2.724   2.841
  628SOL    HW2 2023   1.397   2.632   2.916
  629SOL     OW 2024   1.209   2.387   2.137
  629SOL    HW1 2025   1.222   2.303   2.191
  629SOL    HW2 2026   1.180   2.461   2.197
  630SOL     OW 2027   0.732   2.496   2.926
  630SOL    HW1 2028   0.791   2.470   2.850
  630SOL    HW2 2029   0.704   2.592   2.915
  631SOL     OW 2030   0.307   1.925   2.480
  631SOL    HW1 2031   0.296   2.019   2.513
  631SOL    HW2 2032   0.302   1.862   2.557
  632SOL     OW 2033   1.622   2.229   2.236
  632SOL    HW1 2034   1.624   2.153   2.300
  632SOL    HW2 2035   1.574   2.306   2.276
  633SOL     OW 2036   1.023   2.628   2.828
  633SOL    HW1 2037   1.038   2.649   2.924
  633SOL    HW2 2038   0.993   2.533   2.819
  634SOL     OW 2039   1.540   2.136   1.987
  634SOL    HW1 2040   1.479   2.061   2.010
  634SOL    HW2 2041   1.562   2.188   2.070
  635SOL     OW 2042   1.303   2.700   1.904
  635SOL    HW1 2043   1.337   2.607   1.919
  635SOL    HW2 2044   1.321   2.727   1.809
  636SOL     OW 2045   1.068   3.195   2.711
  636SOL    HW1 2046   1.075   3.111   2.656
  636SOL    HW2 2047   1.130   3.264   2.675
  637SOL     OW 2048   0.319   2.672   2.811
  637SOL    HW1 2049   0.412   2.708   2.816
  637SOL    HW2 2050   0.313   2.587   2.863
  638SOL     OW 2051   0.339   2.371   2.868
  638SOL    HW1 2052   0.287   2.288   2.851
  638SOL    HW2 2053   0.416   2.376   2.804
  639SOL     OW 2054   0.008   3.188   2.062
  639SOL    HW1 2055  -0.085   3.209   2.031
  639SOL    HW2 2056   0.018   3.089   2.075
  640SOL     OW 2057   0.088   3.663   2.789
  640SOL    HW1 2058   0.046   3.577   2.762
  640SOL    HW2 2059   0.182   3.666   2.755
  641SOL     OW 2060   0.504   3.430   2.772
  641SOL    HW1 2061   0.570   3.504   2.781
  641SOL    HW2 2062   0.548   3.351   2.730
  642SOL     OW 2063   0.040   2.406   2.976
  642SOL    HW1 2064   0.125   2.373   2.935
  642SOL    HW2 2065   0.053   2.421   3.074
  643SOL     OW 2066   0.815   2.434   2.187
  643SOL    HW1 2067   0.822   2.345   2.141
  643SOL    HW2 2068   0.721   2.468   2.179
  644SOL     OW 2069   0.473   2.362   2.053
  644SOL    HW1 2070   0.534   2.442   2.057
  644SOL    HW2 2071   0.378   2.393   2.060
  645SOL     OW 2072   1.302   2.717   2.171
  645SOL    HW1 2073   1.216   2.686   2.213
  645SOL    HW2 2074   1.298   2.703   2.072
  646SOL     OW 2075   1.252   3.593   2.990
  646SOL    HW1 2076   1.336   3.598   2.936
  646SOL    HW2 2077   1.229   3.497   3.008
  647SOL     OW 2078   0.083   3.120   2.884
  647SOL    HW1 2079   0.078   3.119   2.984
  647SOL    HW2 2080   0.000   3.079   2.846
  648SOL     OW 2081   1.726   1.997   2.385
  648SOL    HW1 2082   1.799   1.980   2.318
  648SOL    HW2 2083   1.695   1.910   2.423
  649SOL     OW 2084   1.388   3.435   2.339
  649SOL    HW1 2085   1.455   3.447   2.265
  649SOL    HW2 2086   1.348   3.524   2.362
  650SOL     OW 2087   1.280   2.789   2.534
  650SOL    HW1 2088   1.340   2.708   2.536
  650SOL    HW2 2089   1.320   2.858   2.474
  651SOL     OW 2090   0.672   3.478   2.016
  651SOL    HW1 2091   0.681   3.488   1.917
  651SOL    HW2 2092   0.632   3.389   2.037
  652SOL     OW 2093   1.841   2.037   2.825
  652SOL    HW1 2094   1.880   1.952   2.789
  652SOL    HW2 2095   1.743   2.039   2.806
  653SOL     OW 2096   0.263   2.188   2.582
  653SOL    HW1 2097   0.184   2.239   2.548
  653SOL    HW2 2098   0.254   2.173   2.680
  654SOL     OW 2099   1.194   3.474   1.893
  654SOL    HW1 2100   1.200   3.381   1.930
  654SOL    HW2 2101   1.135   3.474   1.813
  655SOL     OW 2102   0.916   2.772   2.153
  655SOL    HW1 2103   0.979   2.810   2.085
  655SOL    HW2 2104   0.956   2.689   2.192
  656SOL     OW 2105   1.504   3.469   1.906
  656SOL    HW1 2106   1.412   3.506   1.913
  656SOL    HW2 2107   1.542   3.489   1.816
  657SOL     OW 2108   1.039   2.960   2.558
  657SOL    HW1 2109   0.969   2.913   2.612
  657SOL    HW2 2110   1.098   2.892   2.515
  658SOL     OW 2111   1.014   2.098   2.833
  658SOL    HW1 2112   1.006   2.062   2.740
  658SOL    HW2 2113   1.012   2.022   2.898
  659SOL     OW 2114   0.590   3.349   2.353
  659SOL    HW1 2115   0.632   3.291   2.283
  659SOL    HW2 2116   0.546   3.428   2.309
  660SOL     OW 2117   0.255   3.210   2.152
  660SOL    HW1 2118   0.159   3.211   2.125
  660SOL    HW2 2119   0.267   3.263   2.236
  661SOL     OW 2120   0.075   2.207   1.895
  661SOL    HW1 2121  -0.017   2.179   1.866
  661SOL    HW2 2122   0.106   2.284   1.839
  662SOL     OW 2123   0.072   2.028   2.180
  662SOL    HW1 2124   0.055   2.111   2.126
  662SOL    HW2 2125   0.162   1.991   2.158
  663SOL     OW 2126   1.183   3.197   1.981
  663SOL    HW1 2127   1.084   3.186   1.983
  663SOL    HW2 2128   1.217   3.212   2.074
  664SOL     OW 2129   1.493   3.629   2.821
  664SOL    HW1 2130   1.526   3.693   2.752
  664SOL    HW2 2131   1.559   3.623   2.896
  665SOL     OW 2132   1.225   2.187   2.311
  665SOL    HW1 2133   1.290   2.113   2.300
  665SOL    HW2 2134   1.245   2.237   2.395
  666SOL     OW 2135   0.594   2.607   2.514
  666SOL    HW1 2136   0.644   2.692   2.495
  666SOL    HW2 2137   0.506   2.609   2.466
  667SOL     OW 2138   0.859   3.236   1.878
  667SOL    HW1 2139   0.813   3.251   1.966
  667SOL    HW2 2140   0.903   3.321   1.848
  668SOL     OW 2141   0.661   3.652   2.815
  668SOL    HW1 2142   0.615   3.740   2.802
  668SOL    HW2 2143   0.760   3.664   2.808
  669SOL     OW 2144   0.859   2.818   2.723
  669SOL    HW1 2145   0.913   2.749   2.771
  669SOL    HW2 2146   0.827   2.887   2.789
  670SOL     OW 2147   1.083   2.846   1.949
  670SOL    HW1 2148   1.060   2.899   1.867
  670SOL    HW2 2149   1.164   2.790   1.930
  671SOL     OW 2150   0.079   3.102   2.515
  671SOL    HW1 2151   0.078   3.055   2.603
  671SOL    HW2 2152   0.161   3.074   2.464
  672SOL     OW 2153   0.428   2.286   2.382
  672SOL    HW1 2154   0.458   2.214   2.320
  672SOL    HW2 2155   0.389   2.246   2.465
  673SOL     OW 2156   0.812   3.448   2.549
  673SOL    HW1 2157   0.844   3.458   2.455
  673SOL    HW2 2158   0.733   3.386   2.551
  674SOL     OW 2159   0.770   3.192   2.163
  674SOL    HW1 2160   0.724   3.105   2.180
  674SOL    HW2 2161   0.861   3.189   2.204
  675SOL     OW 2162   1.352   1.914   2.030
  675SOL    HW1 2163   1.387   1.873   1.946
  675SOL    HW2 2164   1.262   1.876   2.050
  676SOL     OW 2165   1.300   2.315   2.553
  676SOL    HW1 2166   1.241   2.395   2.557
  676SOL    HW2 2167   1.315   2.280   2.646
  677SOL     OW 2168   1.593   2.083   2.744
  677SOL    HW1 2169   1.509   2.082   2.798
  677SOL    HW2 2170   1.595   2.166   2.688
  678SOL     OW 2171   0.039   2.939   2.162
  678SOL    HW1 2172   0.138   2.928   2.153
  678SOL    HW2 2173  -0.001   2.853   2.194
  679SOL     OW 2174   0.875   3.508   2.199
  679SOL    HW1 2175   0.798   3.473   2.145
  679SOL    HW2 2176   0.843   3.579   2.261
  680SOL     OW 2177   0.903   3.810   1.995
  680SOL    HW1 2178   0.954   3.811   1.909
  680SOL    HW2 2179   0.959   3.768   2.066
  681SOL     OW 2180   2.087   0.275   0.996
  681SOL    HW1 2181   2.122   0.258   1.088
  681SOL    HW2 2182   1.999   0.230   0.984
  682SOL     OW 2183   1.881   0.368   0.647
  682SOL    HW1 2184   1.799   0.411   0.686
  682SOL    HW2 2185   1.853   0.295   0.584
  683SOL     OW 2186   2.431   1.275   1.165
  683SOL    HW1 2187   2.338   1.268   1.128
  683SOL    HW2 2188   2.442   1.364   1.209
  684SOL     OW 2189   3.417   1.511   0.703
  684SOL    HW1 2190   3.360   1.495   0.784
  684SOL    HW2 2191   3.358   1.521   0.623
  685SOL     OW 2192   2.997   0.703   0.717
  685SOL    HW1 2193   3.054   0.781   0.692
  685SOL    HW2 2194   2.937   0.729   0.793
  686SOL     OW 2195   3.617   0.607   0.231
  686SOL    HW1 2196   3.605   0.594   0.132
  686SOL    HW2 2197   3.587   0.526   0.280
  687SOL     OW 2198   2.630   1.144   1.023
  687SOL    HW1 2199   2.552   1.161   1.083
  687SOL    HW2 2200   2.664   1.231   0.987
  688SOL     OW 2201   2.712   0.798   1.823
  688SOL    HW1 2202   2.708   0.874   1.888
  688SOL    HW2 2203   2.734   0.834   1.732
  689SOL     OW 2204   2.547   1.012   0.665
  689SOL    HW1 2205   2.616   0.996   0.735
  689SOL    HW2 2206   2.474   1.069   0.703
  690SOL     OW 2207   2.548   1.161   1.803
  690SOL    HW1 2208   2.608   1.240   1.817
  690SOL    HW2 2209   2.462   1.192   1.762
  691SOL     OW 2210   2.197   1.435   1.061
  691SOL    HW1 2211   2.119   1.404   1.008
  691SOL    HW2 2212   2.255   1.493   1.004
  692SOL     OW 2213   3.322   1.505   1.339
  692SOL    HW1 2214   3.346   1.599   1.365
  692SOL    HW2 2215   3.306   1.451   1.421
  693SOL     OW 2216   2.300   0.392   1.499
  693SOL    HW1 2217   2.382   0.336   1.508
  693SOL    HW2 2218   2.219   0.334   1.503
  694SOL     OW 2219   3.465   0.447   0.737
  694SOL    HW1 2220   3.391   0.493   0.687
  694SOL    HW2 2221   3.516   0.515   0.790
  695SOL     OW 2222   2.093   1.713   0.483
  695SOL    HW1 2223   2.127   1.790   0.537
  695SOL    HW2 2224   2.137   1.713   0.393
  696SOL     OW 2225   2.989   1.341   1.690
  696SOL    HW1 2226   3.036   1.341   1.778
  696SOL    HW2 2227   2.941   1.254   1.679
  697SOL     OW 2228   2.092   1.434   0.538
  697SOL    HW1 2229   2.066   1.530   0.538
  697SOL    HW2 2230   2.021   1.380   0.583
  698SOL     OW 2231   2.102   1.091   0.886
  698SOL    HW1 2232   2.116   1.007   0.938
  698SOL    HW2 2233   2.047   1.155   0.941
  699SOL     OW 2234   2.482   1.786   1.439
  699SOL    HW1 2235   2.390   1.769   1.474
  699SOL    HW2 2236   2.510   1.878   1.465
  700SOL     OW 2237   3.456   0.114   1.480
  700SOL    HW1 2238   3.438   0.181   1.408
  700SOL    HW2 2239   3.453   0.160   1.569
  701SOL     OW 2240   1.984   0.643   0.563
  701SOL    HW1 2241   1.939   0.555   0.580
  701SOL    HW2 2242   1.983   0.697   0.647
  702SOL     OW 2243   3.704   1.767   0.359
  702SOL    HW1 2244   3.758   1.738   0.439
  702SOL    HW2 2245   3.734   1.857   0.330
  703SOL     OW 2246   3.551   0.922   0.612
  703SOL    HW1 2247   3.646   0.893   0.620
  703SOL    HW2 2248   3.543   0.987   0.537
  704SOL     OW 2249   1.975   0.737   1.597
  704SOL    HW1 2250   2.063   0.724   1.642
  704SOL    HW2 2251   1.962   0.834   1.575
  705SOL     OW 2252   2.475   1.365   0.726
  705SOL    HW1 2253   2.426   1.278   0.735
  705SOL    HW2 2254   2.452   1.408   0.639
  706SOL     OW 2255   3.155   1.228   1.423
  706SOL    HW1 2256   3.192   1.155   1.365
  706SOL    HW2 2257   3.207   1.233   1.508
  707SOL     OW 2258   2.671   0.004   0.502
  707SOL    HW1 2259   2.711   0.095   0.493
  707SOL    HW2 2260   2.571   0.012   0.508
  708SOL     OW 2261   2.059   0.976   1.264
  708SOL    HW1 2262   2.148   0.931   1.250
  708SOL    HW2 2263   1.986   0.911   1.245
  709SOL     OW 2264   3.049   1.792   1.616
  709SOL    HW1 2265   3.073   1.852   1.540
  709SOL    HW2 2266   3.056   1.697   1.586
  710SOL     OW 2267   2.179   0.251   1.801
  710SOL    HW1 2268   2.250   0.322   1.807
  710SOL    HW2 2269   2.091   0.290   1.829
  711SOL     OW 2270   3.328   1.417   0.953
  711SOL    HW1 2271   3.269   1.423   1.033
  711SOL    HW2 2272   3.313   1.329   0.907
  712SOL     OW 2273   3.529   1.714   0.572
  712SOL    HW1 2274   3.488   1.691   0.484
  712SOL    HW2 2275   3.511   1.640   0.637
  713SOL     OW 2276   3.143   0.345   0.944
  713SOL    HW1 2277   3.057   0.295   0.931
  713SOL    HW2 2278   3.205   0.291   1.000
  714SOL     OW 2279   2.669   0.605   1.465
  714SOL    HW1 2280   2.622   0.602   1.554
  714SOL    HW2 2281   2.618   0.550   1.399
  715SOL     OW 2282   3.256   0.469   1.674
  715SOL    HW1 2283   3.236   0.512   1.762
  715SOL    HW2 2284   3.334   0.407   1.683
  716SOL     OW 2285   2.835   0.890   1.572
  716SOL    HW1 2286   2.881   0.806   1.543
  716SOL    HW2 2287   2.779   0.924   1.497
  717SOL     OW 2288   2.853   0.410   1.242
  717SOL    HW1 2289   2.776   0.444   1.296
  717SOL    HW2 2290   2.819   0.359   1.163
  718SOL     OW 2291   2.903   0.701   0.429
  718SOL    HW1 2292   2.929   0.697   0.525
  718SOL    HW2 2293   2.818   0.650   0.415
  719SOL     OW 2294   1.938   0.811   0.789
  719SOL    HW1 2295   2.037   0.799   0.798
  719SOL    HW2 2296   1.914   0.906   0.810
  720SOL     OW 2297   1.992   1.821   1.571
  720SOL    HW1 2298   1.982   1.806   1.670
  720SOL    HW2 2299   1.906   1.857   1.535
  721SOL     OW 2300   3.581   0.585   1.831
  721SOL    HW1 2301   3.555   0.674   1.795
  721SOL    HW2 2302   3.579   0.517   1.758
  722SOL     OW 2303   3.224   1.144   0.545
  722SOL    HW1 2304   3.307   1.115   0.497
  722SOL    HW2 2305   3.175   1.211   0.489
  723SOL     OW 2306   2.412   0.196   0.885
  723SOL    HW1 2307   2.407   0.191   0.985
  723SOL    HW2 2308   2.414   0.292   0.856
  724SOL     OW 2309   2.870   1.456   0.477
  724SOL    HW1 2310   2.824   1.528   0.425
  724SOL    HW2 2311   2.866   1.476   0.575
  725SOL     OW 2312   2.213   1.801   0.853
  725SOL    HW1 2313   2.263   1.715   0.859
  725SOL    HW2 2314   2.278   1.878   0.850
  726SOL     OW 2315   3.657   1.066   0.873
  726SOL    HW1 2316   3.595   1.051   0.797
  726SOL    HW2 2317   3.605   1.077   0.958
  727SOL     OW 2318   3.089   1.550   1.506
  727SOL    HW1 2319   3.095   1.473   1.570
  727SOL    HW2 2320   3.037   1.524   1.426
  728SOL     OW 2321   3.320   0.735   0.728
  728SOL    HW1 2322   3.315   0.670   0.803
  728SOL    HW2 2323   3.400   0.794   0.741
  729SOL     OW 2324   2.323   1.266   1.727
  729SOL    HW1 2325   2.273   1.267   1.641
  729SOL    HW2 2326   2.260   1.248   1.803
  730SOL     OW 2327   2.973   1.776   0.237
  730SOL    HW1 2328   2.913   1.714   0.287
  730SOL    HW2 2329   3.004   1.732   0.152
  731SOL     OW 2330   2.064   0.285   1.498
  731SOL    HW1 2331   1.984   0.345   1.485
  731SOL    HW2 2332   2.054   0.236   1.584
  732SOL     OW 2333   2.326   1.743   0.323
  732SOL    HW1 2334   2.359   1.782   0.409
  732SOL    HW2 2335   2.402   1.736   0.258
  733SOL     OW 2336   3.262   0.107   0.426
  733SOL    HW1 2337   3.238   0.070   0.336
  733SOL    HW2 2338   3.361   0.123   0.430
  734SOL     OW 2339   2.111   1.785   1.241
  734SOL    HW1 2340   2.168   1.720   1.291
  734SOL    HW2 2341   2.095   1.752   1.148
  735SOL     OW 2342   2.802   1.698   0.904
  735SOL    HW1 2343   2.882   1.641   0.925
  735SOL    HW2 2344   2.753   1.658   0.827
  736SOL     OW 2345   2.244   0.700   0.480
  736SOL    HW1 2346   2.289   0.610   0.477
  736SOL    HW2 2347   2.150   0.689   0.513
  737SOL     OW 2348   3.409   0.222   1.729
  737SOL    HW1 2349   3.404   0.259   1.821
  737SOL    HW2 2350   3.337   0.153   1.717
  738SOL     OW 2351   2.643   0.264   1.749
  738SOL    HW1 2352   2.710   0.203   1.792
  738SOL    HW2 2353   2.570   0.283   1.814
  739SOL     OW 2354   2.750   1.514   1.195
  739SOL    HW1 2355   2.727   1.489   1.101
  739SOL    HW2 2356   2.811   1.445   1.234
  740SOL     OW 2357   3.213   0.590   1.433
  740SOL    HW1 2358   3.241   0.547   1.518
  740SOL    HW2 2359   3.238   0.686   1.434
  741SOL     OW 2360   2.665   1.402   0.924
  741SOL    HW1 2361   2.755   1.416   0.882
  741SOL    HW2 2362   2.594   1.404   0.853
  742SOL     OW 2363   2.784   0.503   0.899
  742SOL    HW1 2364   2.759   0.494   0.803
  742SOL    HW2 2365   2.832   0.421   0.930
  743SOL     OW 2366   2.401   0.064   0.512
  743SOL    HW1 2367   2.320   0.065   0.570
  743SOL    HW2 2368   2.404   0.147   0.457
  744SOL     OW 2369   2.159   0.035   0.171
  744SOL    HW1 2370   2.208   0.119   0.150
  744SOL    HW2 2371   2.221  -0.030   0.216
  745SOL     OW 2372   2.797   0.236   0.480
  745SOL    HW1 2373   2.749   0.277   0.402
  745SOL    HW2 2374   2.896   0.234   0.461
  746SOL     OW 2375   2.938   0.683   1.464
  746SOL    HW1 2376   2.858   0.622   1.467
  746SOL    HW2 2377   3.019   0.630   1.440
  747SOL     OW 2378   3.089   1.570   0.793
  747SOL    HW1 2379   3.110   1.644   0.728
  747SOL    HW2 2380   3.157   1.570   0.866
  748SOL     OW 2381   2.321   1.152   0.741
  748SOL    HW1 2382   2.250   1.125   0.806
  748SOL    HW2 2383   2.295   1.124   0.648
  749SOL     OW 2384   3.133   1.797   0.591
  749SOL    HW1 2385   3.177   1.861   0.527
  749SOL    HW2 2386   3.083   1.849   0.661
  750SOL     OW 2387   2.423   0.222   1.147
  750SOL    HW1 2388   2.461   0.138   1.184
  750SOL    HW2 2389   2.335   0.241   1.191
  751SOL     OW 2390   2.728   0.454   0.642
  751SOL    HW1 2391   2.696   0.526   0.580
  751SOL    HW2 2392   2.752   0.373   0.589
  752SOL     OW 2393   2.879   0.039   0.753
  752SOL    HW1 2394   2.807   0.044   0.684
  752SOL    HW2 2395   2.855  -0.030   0.822
  753SOL     OW 2396   3.291   1.173   0.867
  753SOL    HW1 2397   3.236   1.089   0.860
  753SOL    HW2 2398   3.317   1.202   0.775
  754SOL     OW 2399   3.328   0.590   0.992
  754SOL    HW1 2400   3.298   0.495   0.999
  754SOL    HW2 2401   3.401   0.606   1.058
  755SOL     OW 2402   3.719   0.833   0.377
  755SOL    HW1 2403   3.761   0.769   0.441
  755SOL    HW2 2404   3.681   0.782   0.299
  756SOL     OW 2405   3.526   1.280   0.657
  756SOL    HW1 2406   3.625   1.288   0.671
  756SOL    HW2 2407   3.481   1.364   0.688
  757SOL     OW 2408   3.616   1.223   1.588
  757SOL    HW1 2409   3.707   1.184   1.575
  757SOL    HW2 2410   3.624   1.319   1.612
  758SOL     OW 2411   2.926   1.347   1.340
  758SOL    HW1 2412   2.846   1.324   1.395
  758SOL    HW2 2413   3.009   1.321   1.389
  759SOL     OW 2414   3.454   1.629   1.625
  759SOL    HW1 2415   3.481   1.663   1.535
  759SOL    HW2 2416   3.533   1.591   1.671
  760SOL     OW 2417   2.973   1.195   1.100
  760SOL    HW1 2418   2.933   1.239   1.181
  760SOL    HW2 2419   2.932   1.232   1.017
  761SOL     OW 2420   3.500   1.099   1.079
  761SOL    HW1 2421   3.505   1.180   1.138
  761SOL    HW2 2422   3.414   1.101   1.028
  762SOL     OW 2423   2.777   0.089   1.402
  762SOL    HW1 2424   2.802   0.069   1.307
  762SOL    HW2 2425   2.849   0.145   1.444
  763SOL     OW 2426   2.842   1.116   1.719
  763SOL    HW1 2427   2.743   1.122   1.729
  763SOL    HW2 2428   2.865   1.036   1.663
  764SOL     OW 2429   2.272   0.813   1.251
  764SOL    HW1 2430   2.358   0.825   1.301
  764SOL    HW2 2431   2.230   0.726   1.278
  765SOL     OW 2432   3.136   0.386   1.262
  765SOL    HW1 2433   3.157   0.460   1.326
  765SOL    HW2 2434   3.047   0.403   1.219
  766SOL     OW 2435   1.926   1.564   1.331
  766SOL    HW1 2436   1.880   1.646   1.297
  766SOL    HW2 2437   2.024   1.583   1.340
  767SOL     OW 2438   2.229   1.100   0.501
  767SOL    HW1 2439   2.222   1.183   0.445
  767SOL    HW2 2440   2.233   1.020   0.441
  768SOL     OW 2441   2.428   0.537   0.865
  768SOL    HW1 2442   2.440   0.603   0.791
  768SOL    HW2 2443   2.474   0.571   0.948
  769SOL     OW 2444   3.114   1.348   0.388
  769SOL    HW1 2445   3.164   1.425   0.428
  769SOL    HW2 2446   3.019   1.350   0.420
  770SOL     OW 2447   3.134   1.445   1.142
  770SOL    HW1 2448   3.181   1.458   1.229
  770SOL    HW2 2449   3.068   1.371   1.151
  771SOL     OW 2450   3.444   0.639   0.472
  771SOL    HW1 2451   3.413   0.700   0.545
  771SOL    HW2 2452   3.494   0.691   0.403
  772SOL     OW 2453   2.216   1.510   1.329
  772SOL    HW1 2454   2.195   1.466   1.242
  772SOL    HW2 2455   2.313   1.536   1.332
  773SOL     OW 2456   2.264   0.751   1.598
  773SOL    HW1 2457   2.332   0.806   1.551
  773SOL    HW2 2458   2.304   0.663   1.625
  774SOL     OW 2459   3.449   0.779   1.670
  774SOL    HW1 2460   3.357   0.817   1.665
  774SOL    HW2 2461   3.509   0.826   1.605
  775SOL     OW 2462   2.875   0.105   1.770
  775SOL    HW1 2463   2.881   0.190   1.718
  775SOL    HW2 2464   2.907   0.029   1.713
  776SOL     OW 2465   2.366   0.050   1.740
  776SOL    HW1 2466   2.324  -0.007   1.670
  776SOL    HW2 2467   2.300   0.119   1.772
  777SOL     OW 2468   2.435   0.870   1.029
  777SOL    HW1 2469   2.479   0.959   1.020
  777SOL    HW2 2470   2.372   0.870   1.106
  778SOL     OW 2471   3.222   0.862   1.045
  778SOL    HW1 2472   3.147   0.862   0.979
  778SOL    HW2 2473   3.259   0.770   1.054
  779SOL     OW 2474   3.071   0.525   0.275
  779SOL    HW1 2475   3.084   0.441   0.329
  779SOL    HW2 2476   3.042   0.599   0.335
  780SOL     OW 2477   2.169   0.213   1.231
  780SOL    HW1 2478   2.146   0.250   1.321
  780SOL    HW2 2479   2.139   0.118   1.225
  781SOL     OW 2480   1.899   1.310   1.282
  781SOL    HW1 2481   1.952   1.261   1.350
  781SOL    HW2 2482   1.921   1.408   1.287
  782SOL     OW 2483   2.594   0.634   1.064
  782SOL    HW1 2484   2.653   0.608   0.988
  782SOL    HW2 2485   2.566   0.730   1.053
  783SOL     OW 2486   3.590   0.935   1.854
  783SOL    HW1 2487   3.544   0.928   1.765
  783SOL    HW2 2488   3.528   0.979   1.920
  784SOL     OW 2489   2.169   0.063   0.618
  784SOL    HW1 2490   2.158   0.157   0.651
  784SOL    HW2 2491   2.164   0.000   0.695
  785SOL     OW 2492   3.484   0.367   0.374
  785SOL    HW1 2493   3.486   0.291   0.438
  785SOL    HW2 2494   3.436   0.444   0.414
  786SOL     OW 2495   2.885   0.766   0.966
  786SOL    HW1 2496   2.900   0.787   1.062
  786SOL    HW2 2497   2.855   0.671   0.957
  787SOL     OW 2498   2.842   1.573   1.700
  787SOL    HW1 2499   2.822   1.617   1.612
  787SOL    HW2 2500   2.881   1.482   1.684
  788SOL     OW 2501   3.721   1.518   1.605
  788SOL    HW1 2502   3.735   1.545   1.510
  788SOL    HW2 2503   3.804   1.540   1.658
  789SOL     OW 2504   2.212   0.898   1.804
  789SOL    HW1 2505   2.288   0.942   1.852
  789SOL    HW2 2506   2.247   0.851   1.722
  790SOL     OW 2507   2.930   1.333   0.849
  790SOL    HW1 2508   2.937   1.249   0.794
  790SOL    HW2 2509   2.992   1.402   0.813
  791SOL     OW 2510   2.181   0.810   0.949
  791SOL    HW1 2511   2.274   0.846   0.954
  791SOL    HW2 2512   2.175   0.725   1.001
  792SOL     OW 2513   2.201   0.509   1.006
  792SOL    HW1 2514   2.149   0.426   0.989
  792SOL    HW2 2515   2.278   0.514   0.942
  793SOL     OW 2516   3.000   0.380   1.678
  793SOL    HW1 2517   2.955   0.443   1.742
  793SOL    HW2 2518   3.093   0.411   1.661
  794SOL     OW 2519   3.022   0.207   1.477
  794SOL    HW1 2520   3.022   0.271   1.554
  794SOL    HW2 2521   3.050   0.255   1.394
  795SOL     OW 2522   1.950   1.801   0.927
  795SOL    HW1 2523   1.908   1.715   0.900
  795SOL    HW2 2524   2.044   1.804   0.893
  796SOL     OW 2525   2.366   1.568   0.910
  796SOL    HW1 2526   2.432   1.642   0.919
  796SOL    HW2 2527   2.410   1.489   0.868
  797SOL     OW 2528   2.864   0.796   1.238
  797SOL    HW1 2529   2.905   0.764   1.324
  797SOL    HW2 2530   2.768   0.769   1.235
  798SOL     OW 2531   1.902   0.544   1.114
  798SOL    HW1 2532   1.987   0.511   1.073
  798SOL    HW2 2533   1.915   0.559   1.212
  799SOL     OW 2534   2.051   0.520   1.722
  799SOL    HW1 2535   2.110   0.480   1.652
  799SOL    HW2 2536   1.993   0.591   1.681
  800SOL     OW 2537   3.231   0.950   1.660
  800SOL    HW1 2538   3.270   1.039   1.680
  800SOL    HW2 2539   3.241   0.930   1.563
  801SOL     OW 2540   3.519   0.604   1.206
  801SOL    HW1 2541   3.481   0.535   1.268
  801SOL    HW2 2542   3.601   0.568   1.162
  802SOL     OW 2543   2.114   1.564   1.744
  802SOL    HW1 2544   2.084   1.621   1.820
  802SOL    HW2 2545   2.107   1.467   1.770
  803SOL     OW 2546   2.533   0.464   1.269
  803SOL    HW1 2547   2.499   0.375   1.239
  803SOL    HW2 2548   2.559   0.518   1.189
  804SOL     OW 2549   2.792   1.678   1.465
  804SOL    HW1 2550   2.768   1.660   1.370
  804SOL    HW2 2551   2.822   1.772   1.475
  805SOL     OW 2552   2.021   1.137   1.466
  805SOL    HW1 2553   2.043   1.076   1.542
  805SOL    HW2 2554   2.031   1.088   1.380
  806SOL     OW 2555   3.209   1.059   1.234
  806SOL    HW1 2556   3.233   0.996   1.160
  806SOL    HW2 2557   3.119   1.099   1.216
  807SOL     OW 2558   3.621   1.747   1.154
  807SOL    HW1 2559   3.682   1.777   1.081
  807SOL    HW2 2560   3.583   1.658   1.132
  808SOL     OW 2561   3.114   1.731   1.128
  808SOL    HW1 2562   3.198   1.736   1.074
  808SOL    HW2 2563   3.091   1.635   1.146
  809SOL     OW 2564   1.945   1.258   1.022
  809SOL    HW1 2565   1.940   1.257   1.122
  809SOL    HW2 2566   1.862   1.217   0.984
  810SOL     OW 2567   2.550   1.662   1.716
  810SOL    HW1 2568   2.494   1.743   1.725
  810SOL    HW2 2569   2.602   1.666   1.630
  811SOL     OW 2570   3.588   0.135   0.523
  811SOL    HW1 2571   3.661   0.118   0.456
  811SOL    HW2 2572   3.557   0.048   0.561
  812SOL     OW 2573   3.250   1.573   0.477
  812SOL    HW1 2574   3.317   1.585   0.403
  812SOL    HW2 2575   3.210   1.662   0.500
  813SOL     OW 2576   1.992   1.794   1.851
  813SOL    HW1 2577   1.951   1.720   1.904
  813SOL    HW2 2578   2.056   1.845   1.909
  814SOL     OW 2579   3.142   0.927   0.672
  814SOL    HW1 2580   3.202   0.846   0.674
  814SOL    HW2 2581   3.182   0.996   0.612
  815SOL     OW 2582   2.692   1.273   1.422
  815SOL    HW1 2583   2.687   1.306   1.517
  815SOL    HW2 2584   2.606   1.292   1.376
  816SOL     OW 2585   3.512   1.720   1.394
  816SOL    HW1 2586   3.565   1.730   1.310
  816SOL    HW2 2587   3.485   1.810   1.428
  817SOL     OW 2588   3.703   0.175   0.963
  817SOL    HW1 2589   3.742   0.090   0.927
  817SOL    HW2 2590   3.605   0.177   0.944
  818SOL     OW 2591   2.125   0.326   0.720
  818SOL    HW1 2592   2.046   0.377   0.686
  818SOL    HW2 2593   2.116   0.311   0.818
  819SOL     OW 2594   2.684   1.002   1.372
  819SOL    HW1 2595   2.724   1.001   1.280
  819SOL    HW2 2596   2.694   1.094   1.412
  820SOL     OW 2597   2.778   0.910   0.291
  820SOL    HW1 2598   2.841   0.948   0.223
  820SOL    HW2 2599   2.818   0.827   0.330
  821SOL     OW 2600   2.234   1.288   1.490
  821SOL    HW1 2601   2.221   1.381   1.456
  821SOL    HW2 2602   2.150   1.236   1.477
  822SOL     OW 2603   3.476   1.292   1.289
  822SOL    HW1 2604   3.536   1.295   1.369
  822SOL    HW2 2605   3.401   1.356   1.302
  823SOL     OW 2606   2.901   1.098   0.696
  823SOL    HW1 2607   2.831   1.051   0.750
  823SOL    HW2 2608   2.960   1.030   0.653
  824SOL     OW 2609   2.876   0.236   0.971
  824SOL    HW1 2610   2.868   0.200   0.878
  824SOL    HW2 2611   2.874   0.160   1.036
  825SOL     OW 2612   2.452   1.487   0.491
  825SOL    HW1 2613   2.494   1.429   0.421
  825SOL    HW2 2614   2.408   1.566   0.447
  826SOL     OW 2615   3.571   0.385   1.381
  826SOL    HW1 2616   3.644   0.454   1.385
  826SOL    HW2 2617   3.599   0.310   1.322
  827SOL     OW 2618   1.967   1.013   1.726
  827SOL    HW1 2619   1.890   0.980   1.780
  827SOL    HW2 2620   2.052   0.983   1.768
  828SOL     OW 2621   2.534   0.203   1.489
  828SOL    HW1 2622   2.624   0.187   1.449
  828SOL    HW2 2623   2.542   0.208   1.588
  829SOL     OW 2624   1.937   0.345   0.033
  829SOL    HW1 2625   1.845   0.317   0.004
  829SOL    HW2 2626   1.968   0.422  -0.023
  830SOL     OW 2627   3.302   0.856   1.398
  830SOL    HW1 2628   3.245   0.908   1.335
  830SOL    HW2 2629   3.398   0.868   1.374
  831SOL     OW 2630   1.934   0.166   0.318
  831SOL    HW1 2631   1.917   0.249   0.264
  831SOL    HW2 2632   2.024   0.129   0.296
  832SOL     OW 2633   2.475   0.842   1.431
  832SOL    HW1 2634   2.531   0.923   1.414
  832SOL    HW2 2635   2.534   0.762   1.434
  833SOL     OW 2636   3.355   1.767   0.959
  833SOL    HW1 2637   3.388   1.831   0.890
  833SOL    HW2 2638   3.421   1.761   1.034
  834SOL     OW 2639   2.578   0.565   1.708
  834SOL    HW1 2640   2.597   0.630   1.782
  834SOL    HW2 2641   2.638   0.485   1.717
  835SOL     OW 2642   3.312   1.220   1.633
  835SOL    HW1 2643   3.303   1.210   1.732
  835SOL    HW2 2644   3.408   1.213   1.607
  836SOL     OW 2645   2.252   1.741   1.560
  836SOL    HW1 2646   2.161   1.782   1.558
  836SOL    HW2 2647   2.245   1.647   1.592
  837SOL     OW 2648   3.536   0.883   1.254
  837SOL    HW1 2649   3.509   0.794   1.217
  837SOL    HW2 2650   3.537   0.951   1.181
  838SOL     OW 2651   3.087   0.325   0.449
  838SOL    HW1 2652   3.152   0.251   0.438
  838SOL    HW2 2653   3.107   0.375   0.533
  839SOL     OW 2654   2.456   0.745   0.652
  839SOL    HW1 2655   2.506   0.830   0.633
  839SOL    HW2 2656   2.368   0.747   0.604
  840SOL     OW 2657   3.639   0.342   1.642
  840SOL    HW1 2658   3.622   0.373   1.548
  840SOL    HW2 2659   3.555   0.305   1.680
  841SOL     OW 2660   3.592   0.934   1.517
  841SOL    HW1 2661   3.630   1.025   1.532
  841SOL    HW2 2662   3.584   0.917   1.418
  842SOL     OW 2663   2.523   1.790   0.953
  842SOL    HW1 2664   2.477   1.878   0.940
  842SOL    HW2 2665   2.622   1.802   0.946
  843SOL     OW 2666   2.721   0.956   0.861
  843SOL    HW1 2667   2.775   0.887   0.909
  843SOL    HW2 2668   2.689   1.025   0.927
  844SOL     OW 2669   3.723   1.569   0.851
  844SOL    HW1 2670   3.652   1.557   0.781
  844SOL    HW2 2671   3.724   1.490   0.911
  845SOL     OW 2672   2.083   1.314   1.844
  845SOL    HW1 2673   2.018   1.241   1.823
  845SOL    HW2 2674   2.087   1.328   1.942
  846SOL     OW 2675   1.941   1.240   0.653
  846SOL    HW1 2676   1.940   1.193   0.741
  846SOL    HW2 2677   2.023   1.212   0.602
  847SOL     OW 2678   2.534   1.391   1.624
  847SOL    HW1 2679   2.456   1.341   1.662
  847SOL    HW2 2680   2.531   1.486   1.655
  848SOL     OW 2681   3.686   0.192   1.227
  848SOL    HW1 2682   3.682   0.102   1.271
  848SOL    HW2 2683   3.689   0.181   1.128
  849SOL     OW 2684   2.290   0.424   0.520
  849SOL    HW1 2685   2.320   0.352   0.458
  849SOL    HW2 2686   2.251   0.384   0.603
  850SOL     OW 2687   3.567   1.487   1.104
  850SOL    HW1 2688   3.474   1.462   1.077
  850SOL    HW2 2689   3.593   1.437   1.186
  851SOL     OW 2690   2.179   0.547   1.280
  851SOL    HW1 2691   2.217   0.488   1.352
  851SOL    HW2 2692   2.219   0.521   1.192
  852SOL     OW 2693   3.286   0.214   1.112
  852SOL    HW1 2694   3.338   0.149   1.167
  852SOL    HW2 2695   3.237   0.277   1.173
  853SOL     OW 2696   2.863   0.034   1.154
  853SOL    HW1 2697   2.800  -0.038   1.123
  853SOL    HW2 2698   2.956  -0.002   1.154
  854SOL     OW 2699   2.480   1.567   1.284
  854SOL    HW1 2700   2.475   1.649   1.341
  854SOL    HW2 2701   2.569   1.564   1.239
  855SOL     OW 2702   3.214   0.052   0.168
  855SOL    HW1 2703   3.249   0.011   0.084
  855SOL    HW2 2704   3.124   0.014   0.188
  856SOL     OW 2705   3.162   0.453   0.691
  856SOL    HW1 2706   3.103   0.533   0.695
  856SOL    HW2 2707   3.177   0.418   0.784
  857SOL     OW 2708   3.455   0.221   0.882
  857SOL    HW1 2709   3.371   0.220   0.936
  857SOL    HW2 2710   3.457   0.304   0.826
  858SOL     OW 2711   1.901   1.077   0.300
  858SOL    HW1 2712   2.000   1.066   0.291
  858SOL    HW2 2713   1.861   0.991   0.332
  859SOL     OW 2714   2.737   1.646   0.337
  859SOL    HW1 2715   2.660   1.611   0.283
  859SOL    HW2 2716   2.705   1.717   0.399
  860SOL     OW 2717   2.092   0.628   1.975
  860SOL    HW1 2718   1.999   0.626   2.012
  860SOL    HW2 2719   2.093   0.589   1.883
  861SOL     OW 2720   1.881   0.368   2.509
  861SOL    HW1 2721   1.799   0.411   2.548
  861SOL    HW2 2722   1.853   0.295   2.446
  862SOL     OW 2723   2.997   0.703   2.579
  862SOL    HW1 2724   3.054   0.781   2.554
  862SOL    HW2 2725   2.937   0.729   2.655
  863SOL     OW 2726   3.617   0.607   2.093
  863SOL    HW1 2727   3.605   0.594   1.994
  863SOL    HW2 2728   3.587   0.526   2.142
  864SOL     OW 2729   2.547   1.012   2.527
  864SOL    HW1 2730   2.616   0.996   2.597
  864SOL    HW2 2731   2.474   1.069   2.565
  865SOL     OW 2732   3.465   0.447   2.599
  865SOL    HW1 2733   3.391   0.493   2.549
  865SOL    HW2 2734   3.516   0.515   2.652
  866SOL     OW 2735   2.093   1.713   2.345
  866SOL    HW1 2736   2.127   1.790   2.399
  866SOL    HW2 2737   2.137   1.713   2.255
  867SOL     OW 2738   2.092   1.434   2.400
  867SOL    HW1 2739   2.066   1.530   2.400
  867SOL    HW2 2740   2.021   1.380   2.445
  868SOL     OW 2741   2.102   1.091   2.748
  868SOL    HW1 2742   2.116   1.007   2.800
  868SOL    HW2 2743   2.047   1.155   2.803
  869SOL     OW 2744   2.468   0.964   1.985
  869SOL    HW1 2745   2.475   1.048   1.931
  869SOL    HW2 2746   2.514   0.977   2.073
  870SOL     OW 2747   1.984   0.643   2.425
  870SOL    HW1 2748   1.939   0.555   2.442
  870SOL    HW2 2749   1.983   0.697   2.509
  871SOL     OW 2750   3.704   1.767   2.221
  871SOL    HW1 2751   3.758   1.738   2.301
  871SOL    HW2 2752   3.734   1.857   2.192
  872SOL     OW 2753   1.889   1.596   1.979
  872SOL    HW1 2754   1.870   1.500   2.000
  872SOL    HW2 2755   1.856   1.654   2.054
  873SOL     OW 2756   3.551   0.922   2.474
  873SOL    HW1 2757   3.646   0.893   2.482
  873SOL    HW2 2758   3.543   0.987   2.399
  874SOL     OW 2759   3.503   1.108   2.294
  874SOL    HW1 2760   3.589   1.110   2.242
  874SOL    HW2 2761   3.517   1.155   2.382
  875SOL     OW 2762   2.475   1.365   2.588
  875SOL    HW1 2763   2.426   1.278   2.597
  875SOL    HW2 2764   2.452   1.408   2.501
  876SOL     OW 2765   2.671   0.004   2.364
  876SOL    HW1 2766   2.711   0.095   2.355
  876SOL    HW2 2767   2.571   0.012   2.370
  877SOL     OW 2768   3.387   0.999   2.052
  877SOL    HW1 2769   3.324   0.923   2.065
  877SOL    HW2 2770   3.435   1.017   2.138
  878SOL     OW 2771   3.328   1.417   2.815
  878SOL    HW1 2772   3.269   1.423   2.895
  878SOL    HW2 2773   3.313   1.329   2.769
  879SOL     OW 2774   3.529   1.714   2.434
  879SOL    HW1 2775   3.488   1.691   2.346
  879SOL    HW2 2776   3.511   1.640   2.499
  880SOL     OW 2777   2.460   0.729   2.132
  880SOL    HW1 2778   2.484   0.798   2.064
  880SOL    HW2 2779   2.382   0.762   2.186
  881SOL     OW 2780   3.143   0.345   2.806
  881SOL    HW1 2781   3.057   0.295   2.793
  881SOL    HW2 2782   3.205   0.291   2.862
  882SOL     OW 2783   3.438   1.662   2.169
  882SOL    HW1 2784   3.527   1.708   2.172
  882SOL    HW2 2785   3.417   1.638   2.074
  883SOL     OW 2786   2.903   0.701   2.291
  883SOL    HW1 2787   2.929   0.697   2.387
  883SOL    HW2 2788   2.818   0.650   2.277
  884SOL     OW 2789   1.938   0.811   2.651
  884SOL    HW1 2790   2.037   0.799   2.660
  884SOL    HW2 2791   1.914   0.906   2.672
  885SOL     OW 2792   2.727   0.348   2.057
  885SOL    HW1 2793   2.786   0.411   2.008
  885SOL    HW2 2794   2.746   0.254   2.028
  886SOL     OW 2795   3.224   1.144   2.407
  886SOL    HW1 2796   3.307   1.115   2.359
  886SOL    HW2 2797   3.175   1.211   2.351
  887SOL     OW 2798   2.870   1.456   2.339
  887SOL    HW1 2799   2.824   1.528   2.287
  887SOL    HW2 2800   2.866   1.476   2.437
  888SOL     OW 2801   3.657   1.066   2.735
  888SOL    HW1 2802   3.595   1.051   2.659
  888SOL    HW2 2803   3.605   1.077   2.820
  889SOL     OW 2804   2.183   0.943   2.104
  889SOL    HW1 2805   2.265   0.982   2.062
  889SOL    HW2 2806   2.156   0.861   2.055
  890SOL     OW 2807   2.973   1.776   2.099
  890SOL    HW1 2808   2.913   1.714   2.149
  890SOL    HW2 2809   3.004   1.732   2.014
  891SOL     OW 2810   3.494   1.377   1.943
  891SOL    HW1 2811   3.462   1.471   1.933
  891SOL    HW2 2812   3.418   1.314   1.931
  892SOL     OW 2813   2.326   1.743   2.185
  892SOL    HW1 2814   2.359   1.782   2.271
  892SOL    HW2 2815   2.402   1.736   2.120
  893SOL     OW 2816   3.262   0.107   2.288
  893SOL    HW1 2817   3.238   0.070   2.198
  893SOL    HW2 2818   3.361   0.123   2.292
  894SOL     OW 2819   2.802   1.698   2.766
  894SOL    HW1 2820   2.882   1.641   2.787
  894SOL    HW2 2821   2.753   1.658   2.689
  895SOL     OW 2822   2.244   0.700   2.342
  895SOL    HW1 2823   2.289   0.610   2.339
  895SOL    HW2 2824   2.150   0.689   2.375
  896SOL     OW 2825   2.476   0.122   1.979
  896SOL    HW1 2826   2.574   0.100   1.986
  896SOL    HW2 2827   2.445   0.105   1.886
  897SOL     OW 2828   2.401   0.064   2.374
  897SOL    HW1 2829   2.320   0.065   2.432
  897SOL    HW2 2830   2.404   0.147   2.319
  898SOL     OW 2831   3.296   1.188   1.903
  898SOL    HW1 2832   3.328   1.112   1.960
  898SOL    HW2 2833   3.204   1.215   1.933
  899SOL     OW 2834   2.159   0.035   2.033
  899SOL    HW1 2835   2.208   0.119   2.012
  899SOL    HW2 2836   2.221  -0.030   2.078
  900SOL     OW 2837   2.797   0.236   2.342
  900SOL    HW1 2838   2.749   0.277   2.264
  900SOL    HW2 2839   2.896   0.234   2.323
  901SOL     OW 2840   2.321   1.152   2.603
  901SOL    HW1 2841   2.250   1.125   2.668
  901SOL    HW2 2842   2.295   1.124   2.510
  902SOL     OW 2843   3.133   1.797   2.453
  902SOL    HW1 2844   3.177   1.861   2.389
  902SOL    HW2 2845   3.083   1.849   2.523
  903SOL     OW 2846   2.894   0.549   1.878
  903SOL    HW1 2847   2.853   0.631   1.839
  903SOL    HW2 2848   2.958   0.575   1.951
  904SOL     OW 2849   2.728   0.454   2.504
  904SOL    HW1 2850   2.696   0.526   2.442
  904SOL    HW2 2851   2.752   0.373   2.451
  905SOL     OW 2852   3.719   0.833   2.239
  905SOL    HW1 2853   3.761   0.769   2.303
  905SOL    HW2 2854   3.681   0.782   2.161
  906SOL     OW 2855   2.350   1.385   2.036
  906SOL    HW1 2856   2.263   1.370   2.083
  906SOL    HW2 2857   2.333   1.411   1.941
  907SOL     OW 2858   3.526   1.280   2.519
  907SOL    HW1 2859   3.625   1.288   2.533
  907SOL    HW2 2860   3.481   1.364   2.550
  908SOL     OW 2861   3.252   0.575   1.940
  908SOL    HW1 2862   3.198   0.554   2.021
  908SOL    HW2 2863   3.343   0.534   1.949
  909SOL     OW 2864   2.389   0.256   2.190
  909SOL    HW1 2865   2.416   0.197   2.115
  909SOL    HW2 2866   2.389   0.351   2.159
  910SOL     OW 2867   2.567   1.050   2.230
  910SOL    HW1 2868   2.553   1.057   2.329
  910SOL    HW2 2869   2.651   0.999   2.212
  911SOL     OW 2870   2.229   1.100   2.363
  911SOL    HW1 2871   2.222   1.183   2.307
  911SOL    HW2 2872   2.233   1.020   2.303
  912SOL     OW 2873   3.114   1.348   2.250
  912SOL    HW1 2874   3.164   1.425   2.290
  912SOL    HW2 2875   3.019   1.350   2.282
  913SOL     OW 2876   3.444   0.639   2.334
  913SOL    HW1 2877   3.413   0.700   2.407
  913SOL    HW2 2878   3.494   0.691   2.265
  914SOL     OW 2879   3.071   0.525   2.137
  914SOL    HW1 2880   3.084   0.441   2.191
  914SOL    HW2 2881   3.042   0.599   2.197
  915SOL     OW 2882   2.169   0.063   2.480
  915SOL    HW1 2883   2.158   0.157   2.513
  915SOL    HW2 2884   2.164   0.000   2.557
  916SOL     OW 2885   3.484   0.367   2.236
  916SOL    HW1 2886   3.486   0.291   2.300
  916SOL    HW2 2887   3.436   0.444   2.276
  917SOL     OW 2888   3.165   0.838   1.904
  917SOL    HW1 2889   3.199   0.745   1.919
  917SOL    HW2 2890   3.183   0.865   1.809
  918SOL     OW 2891   1.870   1.326   2.062
  918SOL    HW1 2892   1.777   1.347   2.031
  918SOL    HW2 2893   1.880   1.227   2.075
  919SOL     OW 2894   1.950   1.801   2.789
  919SOL    HW1 2895   1.908   1.715   2.762
  919SOL    HW2 2896   2.044   1.804   2.755
  920SOL     OW 2897   1.902   0.544   2.976
  920SOL    HW1 2898   1.987   0.511   2.935
  920SOL    HW2 2899   1.915   0.559   3.074
  921SOL     OW 2900   2.677   0.572   2.187
  921SOL    HW1 2901   2.684   0.483   2.141
  921SOL    HW2 2902   2.583   0.606   2.179
  922SOL     OW 2903   2.335   0.500   2.053
  922SOL    HW1 2904   2.396   0.580   2.057
  922SOL    HW2 2905   2.240   0.531   2.060
  923SOL     OW 2906   3.164   0.855   2.171
  923SOL    HW1 2907   3.078   0.824   2.213
  923SOL    HW2 2908   3.160   0.841   2.072
  924SOL     OW 2909   3.588   0.135   2.385
  924SOL    HW1 2910   3.661   0.118   2.318
  924SOL    HW2 2911   3.557   0.048   2.423
  925SOL     OW 2912   3.250   1.573   2.339
  925SOL    HW1 2913   3.317   1.585   2.265
  925SOL    HW2 2914   3.210   1.662   2.362
  926SOL     OW 2915   2.534   1.616   2.016
  926SOL    HW1 2916   2.543   1.626   1.917
  926SOL    HW2 2917   2.494   1.527   2.037
  927SOL     OW 2918   3.703   0.175   2.825
  927SOL    HW1 2919   3.742   0.090   2.789
  927SOL    HW2 2920   3.605   0.177   2.806
  928SOL     OW 2921   3.056   1.612   1.893
  928SOL    HW1 2922   3.062   1.519   1.930
  928SOL    HW2 2923   2.997   1.612   1.813
  929SOL     OW 2924   2.778   0.910   2.153
  929SOL    HW1 2925   2.841   0.948   2.085
  929SOL    HW2 2926   2.818   0.827   2.192
  930SOL     OW 2927   3.366   1.607   1.906
  930SOL    HW1 2928   3.274   1.644   1.913
  930SOL    HW2 2929   3.404   1.627   1.816
  931SOL     OW 2930   2.901   1.098   2.558
  931SOL    HW1 2931   2.831   1.051   2.612
  931SOL    HW2 2932   2.960   1.030   2.515
  932SOL     OW 2933   2.452   1.487   2.353
  932SOL    HW1 2934   2.494   1.429   2.283
  932SOL    HW2 2935   2.408   1.566   2.309
  933SOL     OW 2936   2.117   1.348   2.152
  933SOL    HW1 2937   2.021   1.349   2.125
  933SOL    HW2 2938   2.129   1.401   2.236
  934SOL     OW 2939   1.937   0.345   1.895
  934SOL    HW1 2940   1.845   0.317   1.866
  934SOL    HW2 2941   1.968   0.422   1.839
  935SOL     OW 2942   1.934   0.166   2.180
  935SOL    HW1 2943   1.917   0.249   2.126
  935SOL    HW2 2944   2.024   0.129   2.158
  936SOL     OW 2945   3.045   1.335   1.981
  936SOL    HW1 2946   2.946   1.324   1.983
  936SOL    HW2 2947   3.079   1.350   2.074
  937SOL     OW 2948   3.087   0.325   2.311
  937SOL    HW1 2949   3.152   0.251   2.300
  937SOL    HW2 2950   3.107   0.375   2.395
  938SOL     OW 2951   2.456   0.745   2.514
  938SOL    HW1 2952   2.506   0.830   2.495
  938SOL    HW2 2953   2.368   0.747   2.466
  939SOL     OW 2954   2.721   1.374   1.878
  939SOL    HW1 2955   2.675   1.389   1.966
  939SOL    HW2 2956   2.765   1.459   1.848
  940SOL     OW 2957   2.721   0.956   2.723
  940SOL    HW1 2958   2.775   0.887   2.771
  940SOL    HW2 2959   2.689   1.025   2.789
  941SOL     OW 2960   2.945   0.984   1.949
  941SOL    HW1 2961   2.922   1.037   1.867
  941SOL    HW2 2962   3.026   0.928   1.930
  942SOL     OW 2963   3.723   1.569   2.713
  942SOL    HW1 2964   3.652   1.557   2.643
  942SOL    HW2 2965   3.724   1.490   2.773
  943SOL     OW 2966   1.941   1.240   2.515
  943SOL    HW1 2967   1.940   1.193   2.603
  943SOL    HW2 2968   2.023   1.212   2.464
  944SOL     OW 2969   2.290   0.424   2.382
  944SOL    HW1 2970   2.320   0.352   2.320
  944SOL    HW2 2971   2.251   0.384   2.465
  945SOL     OW 2972   2.674   1.586   2.549
  945SOL    HW1 2973   2.706   1.596   2.455
  945SOL    HW2 2974   2.595   1.524   2.551
  946SOL     OW 2975   2.632   1.330   2.163
  946SOL    HW1 2976   2.586   1.243   2.180
  946SOL    HW2 2977   2.723   1.327   2.204
  947SOL     OW 2978   3.214   0.052   2.030
  947SOL    HW1 2979   3.249   0.011   1.946
  947SOL    HW2 2980   3.124   0.014   2.050
  948SOL     OW 2981   3.162   0.453   2.553
  948SOL    HW1 2982   3.103   0.533   2.557
  948SOL    HW2 2983   3.177   0.418   2.646
  949SOL     OW 2984   1.901   1.077   2.162
  949SOL    HW1 2985   2.000   1.066   2.153
  949SOL    HW2 2986   1.861   0.991   2.194
  950SOL     OW 2987   2.737   1.646   2.199
  950SOL    HW1 2988   2.660   1.611   2.145
  950SOL    HW2 2989   2.705   1.717   2.261
  951SOL     OW 2990   2.092   2.490   0.113
  951SOL    HW1 2991   1.999   2.488   0.150
  951SOL    HW2 2992   2.093   2.451   0.021
  952SOL     OW 2993   2.087   2.137   0.996
  952SOL    HW1 2994   2.122   2.120   1.088
  952SOL    HW2 2995   1.999   2.092   0.984
  953SOL     OW 2996   1.881   2.230   0.647
  953SOL    HW1 2997   1.799   2.273   0.686
  953SOL    HW2 2998   1.853   2.157   0.584
  954SOL     OW 2999   3.417   3.373   0.703
  954SOL    HW1 3000   3.360   3.357   0.784
  954SOL    HW2 3001   3.358   3.383   0.623
  955SOL     OW 3002   3.617   2.469   0.231
  955SOL    HW1 3003   3.605   2.456   0.132
  955SOL    HW2 3004   3.587   2.388   0.280
  956SOL     OW 3005   2.547   2.874   0.665
  956SOL    HW1 3006   2.616   2.858   0.735
  956SOL    HW2 3007   2.474   2.931   0.703
  957SOL     OW 3008   2.197   3.297   1.061
  957SOL    HW1 3009   2.119   3.266   1.008
  957SOL    HW2 3010   2.255   3.355   1.004
  958SOL     OW 3011   2.300   2.254   1.499
  958SOL    HW1 3012   2.382   2.198   1.508
  958SOL    HW2 3013   2.219   2.196   1.503
  959SOL     OW 3014   3.465   2.309   0.737
  959SOL    HW1 3015   3.391   2.355   0.687
  959SOL    HW2 3016   3.516   2.377   0.790
  960SOL     OW 3017   2.093   3.575   0.483
  960SOL    HW1 3018   2.127   3.652   0.537
  960SOL    HW2 3019   2.137   3.575   0.393
  961SOL     OW 3020   2.092   3.296   0.538
  961SOL    HW1 3021   2.066   3.392   0.538
  961SOL    HW2 3022   2.021   3.242   0.583
  962SOL     OW 3023   2.102   2.953   0.886
  962SOL    HW1 3024   2.116   2.869   0.938
  962SOL    HW2 3025   2.047   3.017   0.941
  963SOL     OW 3026   2.482   3.648   1.439
  963SOL    HW1 3027   2.390   3.631   1.474
  963SOL    HW2 3028   2.510   3.740   1.465
  964SOL     OW 3029   3.456   1.976   1.480
  964SOL    HW1 3030   3.438   2.043   1.408
  964SOL    HW2 3031   3.453   2.022   1.569
  965SOL     OW 3032   1.984   2.505   0.563
  965SOL    HW1 3033   1.939   2.417   0.580
  965SOL    HW2 3034   1.983   2.559   0.647
  966SOL     OW 3035   3.704   3.629   0.359
  966SOL    HW1 3036   3.758   3.600   0.439
  966SOL    HW2 3037   3.734   3.719   0.330
  967SOL     OW 3038   3.551   2.784   0.612
  967SOL    HW1 3039   3.646   2.755   0.620
  967SOL    HW2 3040   3.543   2.849   0.537
  968SOL     OW 3041   1.975   2.599   1.597
  968SOL    HW1 3042   2.063   2.586   1.642
  968SOL    HW2 3043   1.962   2.696   1.575
  969SOL     OW 3044   2.475   3.227   0.726
  969SOL    HW1 3045   2.426   3.140   0.735
  969SOL    HW2 3046   2.452   3.270   0.639
  970SOL     OW 3047   2.671   1.866   0.502
  970SOL    HW1 3048   2.711   1.957   0.493
  970SOL    HW2 3049   2.571   1.874   0.508
  971SOL     OW 3050   3.049   3.654   1.616
  971SOL    HW1 3051   3.073   3.714   1.540
  971SOL    HW2 3052   3.056   3.559   1.586
  972SOL     OW 3053   2.179   2.113   1.801
  972SOL    HW1 3054   2.250   2.184   1.807
  972SOL    HW2 3055   2.091   2.152   1.829
  973SOL     OW 3056   3.328   3.279   0.953
  973SOL    HW1 3057   3.269   3.285   1.033
  973SOL    HW2 3058   3.313   3.191   0.907
  974SOL     OW 3059   3.529   3.576   0.572
  974SOL    HW1 3060   3.488   3.553   0.484
  974SOL    HW2 3061   3.511   3.502   0.637
  975SOL     OW 3062   3.438   3.524   0.307
  975SOL    HW1 3063   3.527   3.570   0.310
  975SOL    HW2 3064   3.417   3.500   0.212
  976SOL     OW 3065   3.256   2.331   1.674
  976SOL    HW1 3066   3.236   2.374   1.762
  976SOL    HW2 3067   3.334   2.269   1.683
  977SOL     OW 3068   2.903   2.563   0.429
  977SOL    HW1 3069   2.929   2.559   0.525
  977SOL    HW2 3070   2.818   2.512   0.415
  978SOL     OW 3071   1.938   2.673   0.789
  978SOL    HW1 3072   2.037   2.661   0.798
  978SOL    HW2 3073   1.914   2.768   0.810
  979SOL     OW 3074   1.992   3.683   1.571
  979SOL    HW1 3075   1.982   3.668   1.670
  979SOL    HW2 3076   1.906   3.719   1.535
  980SOL     OW 3077   3.581   2.447   1.831
  980SOL    HW1 3078   3.555   2.536   1.795
  980SOL    HW2 3079   3.579   2.379   1.758
  981SOL     OW 3080   3.224   3.006   0.545
  981SOL    HW1 3081   3.307   2.977   0.497
  981SOL    HW2 3082   3.175   3.073   0.489
  982SOL     OW 3083   2.412   2.058   0.885
  982SOL    HW1 3084   2.407   2.053   0.985
  982SOL    HW2 3085   2.414   2.154   0.856
  983SOL     OW 3086   2.870   3.318   0.477
  983SOL    HW1 3087   2.824   3.390   0.425
  983SOL    HW2 3088   2.866   3.338   0.575
  984SOL     OW 3089   2.213   3.663   0.853
  984SOL    HW1 3090   2.263   3.577   0.859
  984SOL    HW2 3091   2.278   3.740   0.850
  985SOL     OW 3092   3.657   2.928   0.873
  985SOL    HW1 3093   3.595   2.913   0.797
  985SOL    HW2 3094   3.605   2.939   0.958
  986SOL     OW 3095   2.064   2.147   1.498
  986SOL    HW1 3096   1.984   2.207   1.485
  986SOL    HW2 3097   2.054   2.098   1.584
  987SOL     OW 3098   2.326   3.605   0.323
  987SOL    HW1 3099   2.359   3.644   0.409
  987SOL    HW2 3100   2.402   3.598   0.258
  988SOL     OW 3101   3.262   1.969   0.426
  988SOL    HW1 3102   3.238   1.932   0.336
  988SOL    HW2 3103   3.361   1.985   0.430
  989SOL     OW 3104   2.111   3.647   1.241
  989SOL    HW1 3105   2.168   3.582   1.291
  989SOL    HW2 3106   2.095   3.614   1.148
  990SOL     OW 3107   2.802   3.560   0.904
  990SOL    HW1 3108   2.882   3.503   0.925
  990SOL    HW2 3109   2.753   3.520   0.827
  991SOL     OW 3110   2.244   2.562   0.480
  991SOL    HW1 3111   2.289   2.472   0.477
  991SOL    HW2 3112   2.150   2.551   0.513
  992SOL     OW 3113   3.409   2.084   1.729
  992SOL    HW1 3114   3.404   2.121   1.821
  992SOL    HW2 3115   3.337   2.015   1.717
  993SOL     OW 3116   2.643   2.126   1.749
  993SOL    HW1 3117   2.710   2.065   1.792
  993SOL    HW2 3118   2.570   2.145   1.814
  994SOL     OW 3119   2.665   3.264   0.924
  994SOL    HW1 3120   2.755   3.278   0.882
  994SOL    HW2 3121   2.594   3.266   0.853
  995SOL     OW 3122   2.401   1.926   0.512
  995SOL    HW1 3123   2.320   1.927   0.570
  995SOL    HW2 3124   2.404   2.009   0.457
  996SOL     OW 3125   2.159   1.897   0.171
  996SOL    HW1 3126   2.208   1.981   0.150
  996SOL    HW2 3127   2.221   1.832   0.216
  997SOL     OW 3128   2.797   2.098   0.480
  997SOL    HW1 3129   2.749   2.139   0.402
  997SOL    HW2 3130   2.896   2.096   0.461
  998SOL     OW 3131   3.089   3.432   0.793
  998SOL    HW1 3132   3.110   3.506   0.728
  998SOL    HW2 3133   3.157   3.432   0.866
  999SOL     OW 3134   2.321   3.014   0.741
  999SOL    HW1 3135   2.250   2.987   0.806
  999SOL    HW2 3136   2.295   2.986   0.648
 1000SOL     OW 3137   3.133   3.659   0.591
 1000SOL    HW1 3138   3.177   3.723   0.527
 1000SOL    HW2 3139   3.083   3.711   0.661
 1001SOL     OW 3140   1.940   2.418   1.386
 1001SOL    HW1 3141   2.032   2.417   1.345
 1001SOL    HW2 3142   1.934   2.492   1.453
 1002SOL     OW 3143   2.423   2.084   1.147
 1002SOL    HW1 3144   2.461   2.000   1.184
 1002SOL    HW2 3145   2.335   2.103   1.191
 1003SOL     OW 3146   2.728   2.316   0.642
 1003SOL    HW1 3147   2.696   2.388   0.580
 1003SOL    HW2 3148   2.752   2.235   0.589
 1004SOL     OW 3149   2.879   1.901   0.753
 1004SOL    HW1 3150   2.807   1.906   0.684
 1004SOL    HW2 3151   2.855   1.832   0.822
 1005SOL     OW 3152   3.719   2.695   0.377
 1005SOL    HW1 3153   3.761   2.631   0.441
 1005SOL    HW2 3154   3.681   2.644   0.299
 1006SOL     OW 3155   3.526   3.142   0.657
 1006SOL    HW1 3156   3.625   3.150   0.671
 1006SOL    HW2 3157   3.481   3.226   0.688
 1007SOL     OW 3158   3.616   3.085   1.588
 1007SOL    HW1 3159   3.707   3.046   1.575
 1007SOL    HW2 3160   3.624   3.181   1.612
 1008SOL     OW 3161   3.454   3.491   1.625
 1008SOL    HW1 3162   3.481   3.525   1.535
 1008SOL    HW2 3163   3.533   3.453   1.671
 1009SOL     OW 3164   3.500   2.961   1.079
 1009SOL    HW1 3165   3.505   3.042   1.138
 1009SOL    HW2 3166   3.414   2.963   1.028
 1010SOL     OW 3167   2.777   1.951   1.402
 1010SOL    HW1 3168   2.802   1.931   1.307
 1010SOL    HW2 3169   2.849   2.007   1.444
 1011SOL     OW 3170   2.567   2.912   0.368
 1011SOL    HW1 3171   2.553   2.919   0.467
 1011SOL    HW2 3172   2.651   2.861   0.350
 1012SOL     OW 3173   1.926   3.426   1.331
 1012SOL    HW1 3174   1.880   3.508   1.297
 1012SOL    HW2 3175   2.024   3.445   1.340
 1013SOL     OW 3176   2.229   2.962   0.501
 1013SOL    HW1 3177   2.222   3.045   0.445
 1013SOL    HW2 3178   2.233   2.882   0.441
 1014SOL     OW 3179   2.428   2.399   0.865
 1014SOL    HW1 3180   2.440   2.465   0.791
 1014SOL    HW2 3181   2.474   2.433   0.948
 1015SOL     OW 3182   3.134   3.307   1.142
 1015SOL    HW1 3183   3.181   3.320   1.229
 1015SOL    HW2 3184   3.068   3.233   1.151
 1016SOL     OW 3185   3.444   2.501   0.472
 1016SOL    HW1 3186   3.413   2.562   0.545
 1016SOL    HW2 3187   3.494   2.553   0.403
 1017SOL     OW 3188   2.264   2.613   1.598
 1017SOL    HW1 3189   2.332   2.668   1.551
 1017SOL    HW2 3190   2.304   2.525   1.625
 1018SOL     OW 3191   3.449   2.641   1.670
 1018SOL    HW1 3192   3.357   2.679   1.665
 1018SOL    HW2 3193   3.509   2.688   1.605
 1019SOL     OW 3194   2.875   1.967   1.770
 1019SOL    HW1 3195   2.881   2.052   1.718
 1019SOL    HW2 3196   2.907   1.891   1.713
 1020SOL     OW 3197   2.366   1.912   1.740
 1020SOL    HW1 3198   2.324   1.855   1.670
 1020SOL    HW2 3199   2.300   1.981   1.772
 1021SOL     OW 3200   3.071   2.387   0.275
 1021SOL    HW1 3201   3.084   2.303   0.329
 1021SOL    HW2 3202   3.042   2.461   0.335
 1022SOL     OW 3203   2.169   2.075   1.231
 1022SOL    HW1 3204   2.146   2.112   1.321
 1022SOL    HW2 3205   2.139   1.980   1.225
 1023SOL     OW 3206   1.899   3.172   1.282
 1023SOL    HW1 3207   1.952   3.123   1.350
 1023SOL    HW2 3208   1.921   3.270   1.287
 1024SOL     OW 3209   3.590   2.797   1.854
 1024SOL    HW1 3210   3.544   2.790   1.765
 1024SOL    HW2 3211   3.528   2.841   1.920
 1025SOL     OW 3212   2.169   1.925   0.618
 1025SOL    HW1 3213   2.158   2.019   0.651
 1025SOL    HW2 3214   2.164   1.862   0.695
 1026SOL     OW 3215   3.484   2.229   0.374
 1026SOL    HW1 3216   3.486   2.153   0.438
 1026SOL    HW2 3217   3.436   2.306   0.414
 1027SOL     OW 3218   3.721   3.380   1.605
 1027SOL    HW1 3219   3.735   3.407   1.510
 1027SOL    HW2 3220   3.804   3.402   1.658
 1028SOL     OW 3221   2.212   2.760   1.804
 1028SOL    HW1 3222   2.288   2.804   1.852
 1028SOL    HW2 3223   2.247   2.713   1.722
 1029SOL     OW 3224   2.181   2.672   0.949
 1029SOL    HW1 3225   2.274   2.708   0.954
 1029SOL    HW2 3226   2.175   2.587   1.001
 1030SOL     OW 3227   2.201   2.371   1.006
 1030SOL    HW1 3228   2.149   2.288   0.989
 1030SOL    HW2 3229   2.278   2.376   0.942
 1031SOL     OW 3230   3.022   2.069   1.477
 1031SOL    HW1 3231   3.022   2.133   1.554
 1031SOL    HW2 3232   3.050   2.117   1.394
 1032SOL     OW 3233   1.950   3.663   0.927
 1032SOL    HW1 3234   1.908   3.577   0.900
 1032SOL    HW2 3235   2.044   3.666   0.893
 1033SOL     OW 3236   2.366   3.430   0.910
 1033SOL    HW1 3237   2.432   3.504   0.919
 1033SOL    HW2 3238   2.410   3.351   0.868
 1034SOL     OW 3239   1.902   2.406   1.114
 1034SOL    HW1 3240   1.987   2.373   1.073
 1034SOL    HW2 3241   1.915   2.421   1.212
 1035SOL     OW 3242   2.051   2.382   1.722
 1035SOL    HW1 3243   2.110   2.342   1.652
 1035SOL    HW2 3244   1.993   2.453   1.681
 1036SOL     OW 3245   3.231   2.812   1.660
 1036SOL    HW1 3246   3.270   2.901   1.680
 1036SOL    HW2 3247   3.241   2.792   1.563
 1037SOL     OW 3248   2.114   3.426   1.744
 1037SOL    HW1 3249   2.084   3.483   1.820
 1037SOL    HW2 3250   2.107   3.329   1.770
 1038SOL     OW 3251   2.792   3.540   1.465
 1038SOL    HW1 3252   2.768   3.522   1.370
 1038SOL    HW2 3253   2.822   3.634   1.475
 1039SOL     OW 3254   3.621   3.609   1.154
 1039SOL    HW1 3255   3.682   3.639   1.081
 1039SOL    HW2 3256   3.583   3.520   1.132
 1040SOL     OW 3257   3.114   3.593   1.128
 1040SOL    HW1 3258   3.198   3.598   1.074
 1040SOL    HW2 3259   3.091   3.497   1.146
 1041SOL     OW 3260   2.550   3.524   1.716
 1041SOL    HW1 3261   2.494   3.605   1.725
 1041SOL    HW2 3262   2.602   3.528   1.630
 1042SOL     OW 3263   3.588   1.997   0.523
 1042SOL    HW1 3264   3.661   1.980   0.456
 1042SOL    HW2 3265   3.557   1.910   0.561
 1043SOL     OW 3266   3.250   3.435   0.477
 1043SOL    HW1 3267   3.317   3.447   0.403
 1043SOL    HW2 3268   3.210   3.524   0.500
 1044SOL     OW 3269   1.992   3.656   1.851
 1044SOL    HW1 3270   1.951   3.582   1.904
 1044SOL    HW2 3271   2.056   3.707   1.909
 1045SOL     OW 3272   3.512   3.582   1.394
 1045SOL    HW1 3273   3.565   3.592   1.310
 1045SOL    HW2 3274   3.485   3.672   1.428
 1046SOL     OW 3275   3.703   2.037   0.963
 1046SOL    HW1 3276   3.742   1.952   0.927
 1046SOL    HW2 3277   3.605   2.039   0.944
 1047SOL     OW 3278   2.125   2.188   0.720
 1047SOL    HW1 3279   2.046   2.239   0.686
 1047SOL    HW2 3280   2.116   2.173   0.818
 1048SOL     OW 3281   2.778   2.772   0.291
 1048SOL    HW1 3282   2.841   2.810   0.223
 1048SOL    HW2 3283   2.818   2.689   0.330
 1049SOL     OW 3284   2.452   3.349   0.491
 1049SOL    HW1 3285   2.494   3.291   0.421
 1049SOL    HW2 3286   2.408   3.428   0.447
 1050SOL     OW 3287   3.571   2.247   1.381
 1050SOL    HW1 3288   3.644   2.316   1.385
 1050SOL    HW2 3289   3.599   2.172   1.322
 1051SOL     OW 3290   1.967   2.875   1.726
 1051SOL    HW1 3291   1.890   2.842   1.780
 1051SOL    HW2 3292   2.052   2.845   1.768
 1052SOL     OW 3293   2.534   2.065   1.489
 1052SOL    HW1 3294   2.624   2.049   1.449
 1052SOL    HW2 3295   2.542   2.070   1.588
 1053SOL     OW 3296   1.937   2.207   0.033
 1053SOL    HW1 3297   1.845   2.179   0.004
 1053SOL    HW2 3298   1.968   2.284  -0.023
 1054SOL     OW 3299   1.934   2.028   0.318
 1054SOL    HW1 3300   1.917   2.111   0.264
 1054SOL    HW2 3301   2.024   1.991   0.296
 1055SOL     OW 3302   3.355   3.629   0.959
 1055SOL    HW1 3303   3.388   3.693   0.890
 1055SOL    HW2 3304   3.421   3.623   1.034
 1056SOL     OW 3305   2.252   3.603   1.560
 1056SOL    HW1 3306   2.161   3.644   1.558
 1056SOL    HW2 3307   2.245   3.509   1.592
 1057SOL     OW 3308   3.536   2.745   1.254
 1057SOL    HW1 3309   3.509   2.656   1.217
 1057SOL    HW2 3310   3.537   2.813   1.181
 1058SOL     OW 3311   3.087   2.187   0.449
 1058SOL    HW1 3312   3.152   2.113   0.438
 1058SOL    HW2 3313   3.107   2.237   0.533
 1059SOL     OW 3314   2.456   2.607   0.652
 1059SOL    HW1 3315   2.506   2.692   0.633
 1059SOL    HW2 3316   2.368   2.609   0.604
 1060SOL     OW 3317   3.639   2.204   1.642
 1060SOL    HW1 3318   3.622   2.235   1.548
 1060SOL    HW2 3319   3.555   2.167   1.680
 1061SOL     OW 3320   3.592   2.796   1.517
 1061SOL    HW1 3321   3.630   2.887   1.532
 1061SOL    HW2 3322   3.584   2.779   1.418
 1062SOL     OW 3323   2.523   3.652   0.953
 1062SOL    HW1 3324   2.477   3.740   0.940
 1062SOL    HW2 3325   2.622   3.664   0.946
 1063SOL     OW 3326   3.723   3.431   0.851
 1063SOL    HW1 3327   3.652   3.419   0.781
 1063SOL    HW2 3328   3.724   3.352   0.911
 1064SOL     OW 3329   2.083   3.176   1.844
 1064SOL    HW1 3330   2.018   3.103   1.823
 1064SOL    HW2 3331   2.087   3.190   1.942
 1065SOL     OW 3332   1.941   3.102   0.653
 1065SOL    HW1 3333   1.940   3.055   0.741
 1065SOL    HW2 3334   2.023   3.074   0.602
 1066SOL     OW 3335   3.686   2.054   1.227
 1066SOL    HW1 3336   3.682   1.964   1.271
 1066SOL    HW2 3337   3.689   2.043   1.128
 1067SOL     OW 3338   2.290   2.286   0.520
 1067SOL    HW1 3339   2.320   2.214   0.458
 1067SOL    HW2 3340   2.251   2.246   0.603
 1068SOL     OW 3341   3.567   3.349   1.104
 1068SOL    HW1 3342   3.474   3.324   1.077
 1068SOL    HW2 3343   3.593   3.299   1.186
 1069SOL     OW 3344   2.179   2.409   1.280
 1069SOL    HW1 3345   2.217   2.350   1.352
 1069SOL    HW2 3346   2.219   2.383   1.192
 1070SOL     OW 3347   2.674   3.448   0.687
 1070SOL    HW1 3348   2.706   3.458   0.593
 1070SOL    HW2 3349   2.595   3.386   0.689
 1071SOL     OW 3350   2.863   1.896   1.154
 1071SOL    HW1 3351   2.800   1.824   1.123
 1071SOL    HW2 3352   2.956   1.860   1.154
 1072SOL     OW 3353   2.480   3.429   1.284
 1072SOL    HW1 3354   2.475   3.511   1.341
 1072SOL    HW2 3355   2.569   3.426   1.239
 1073SOL     OW 3356   3.214   1.914   0.168
 1073SOL    HW1 3357   3.249   1.873   0.084
 1073SOL    HW2 3358   3.124   1.876   0.188
 1074SOL     OW 3359   3.455   2.083   0.882
 1074SOL    HW1 3360   3.371   2.082   0.936
 1074SOL    HW2 3361   3.457   2.166   0.826
 1075SOL     OW 3362   1.901   2.939   0.300
 1075SOL    HW1 3363   2.000   2.928   0.291
 1075SOL    HW2 3364   1.861   2.853   0.332
 1076SOL     OW 3365   2.737   3.508   0.337
 1076SOL    HW1 3366   2.660   3.473   0.283
 1076SOL    HW2 3367   2.705   3.579   0.399
 1077SOL     OW 3368   2.092   2.490   1.975
 1077SOL    HW1 3369   1.999   2.488   2.012
 1077SOL    HW2 3370   2.093   2.451   1.883
 1078SOL     OW 3371   1.881   2.230   2.509
 1078SOL    HW1 3372   1.799   2.273   2.548
 1078SOL    HW2 3373   1.853   2.157   2.446
 1079SOL     OW 3374   3.417   3.373   2.565
 1079SOL    HW1 3375   3.360   3.357   2.646
 1079SOL    HW2 3376   3.358   3.383   2.485
 1080SOL     OW 3377   3.617   2.469   2.093
 1080SOL    HW1 3378   3.605   2.456   1.994
 1080SOL    HW2 3379   3.587   2.388   2.142
 1081SOL     OW 3380   2.547   2.874   2.527
 1081SOL    HW1 3381   2.616   2.858   2.597
 1081SOL    HW2 3382   2.474   2.931   2.565
 1082SOL     OW 3383   3.465   2.309   2.599
 1082SOL    HW1 3384   3.391   2.355   2.549
 1082SOL    HW2 3385   3.516   2.377   2.652
 1083SOL     OW 3386   2.093   3.575   2.345
 1083SOL    HW1 3387   2.127   3.652   2.399
 1083SOL    HW2 3388   2.137   3.575   2.255
 1084SOL     OW 3389   2.092   3.296   2.400
 1084SOL    HW1 3390   2.066   3.392   2.400
 1084SOL    HW2 3391   2.021   3.242   2.445
 1085SOL     OW 3392   2.102   2.953   2.748
 1085SOL    HW1 3393   2.116   2.869   2.800
 1085SOL    HW2 3394   2.047   3.017   2.803
 1086SOL     OW 3395   2.468   2.826   1.985
 1086SOL    HW1 3396   2.475   2.910   1.931
 1086SOL    HW2 3397   2.514   2.839   2.073
 1087SOL     OW 3398   1.984   2.505   2.425
 1087SOL    HW1 3399   1.939   2.417   2.442
 1087SOL    HW2 3400   1.983   2.559   2.509
 1088SOL     OW 3401   3.704   3.629   2.221
 1088SOL    HW1 3402   3.758   3.600   2.301
 1088SOL    HW2 3403   3.734   3.719   2.192
 1089SOL     OW 3404   1.889   3.458   1.979
 1089SOL    HW1 3405   1.870   3.362   2.000
 1089SOL    HW2 3406   1.856   3.516   2.054
 1090SOL     OW 3407   3.551   2.784   2.474
 1090SOL    HW1 3408   3.646   2.755   2.482
 1090SOL    HW2 3409   3.543   2.849   2.399
 1091SOL     OW 3410   3.503   2.970   2.294
 1091SOL    HW1 3411   3.589   2.972   2.242
 1091SOL    HW2 3412   3.517   3.017   2.382
 1092SOL     OW 3413   2.475   3.227   2.588
 1092SOL    HW1 3414   2.426   3.140   2.597
 1092SOL    HW2 3415   2.452   3.270   2.501
 1093SOL     OW 3416   2.671   1.866   2.364
 1093SOL    HW1 3417   2.711   1.957   2.355
 1093SOL    HW2 3418   2.571   1.874   2.370
 1094SOL     OW 3419   3.387   2.861   2.052
 1094SOL    HW1 3420   3.324   2.785   2.065
 1094SOL    HW2 3421   3.435   2.879   2.138
 1095SOL     OW 3422   3.529   3.576   2.434
 1095SOL    HW1 3423   3.488   3.553   2.346
 1095SOL    HW2 3424   3.511   3.502   2.499
 1096SOL     OW 3425   2.460   2.591   2.132
 1096SOL    HW1 3426   2.484   2.660   2.064
 1096SOL    HW2 3427   2.382   2.624   2.186
 1097SOL     OW 3428   3.143   2.207   2.806
 1097SOL    HW1 3429   3.057   2.157   2.793
 1097SOL    HW2 3430   3.205   2.153   2.862
 1098SOL     OW 3431   3.438   3.524   2.169
 1098SOL    HW1 3432   3.527   3.570   2.172
 1098SOL    HW2 3433   3.417   3.500   2.074
 1099SOL     OW 3434   2.903   2.563   2.291
 1099SOL    HW1 3435   2.929   2.559   2.387
 1099SOL    HW2 3436   2.818   2.512   2.277
 1100SOL     OW 3437   1.938   2.673   2.651
 1100SOL    HW1 3438   2.037   2.661   2.660
 1100SOL    HW2 3439   1.914   2.768   2.672
 1101SOL     OW 3440   3.224   3.006   2.407
 1101SOL    HW1 3441   3.307   2.977   2.359
 1101SOL    HW2 3442   3.175   3.073   2.351
 1102SOL     OW 3443   2.870   3.318   2.339
 1102SOL    HW1 3444   2.824   3.390   2.287
 1102SOL    HW2 3445   2.866   3.338   2.437
 1103SOL     OW 3446   2.213   3.663   2.715
 1103SOL    HW1 3447   2.263   3.577   2.721
 1103SOL    HW2 3448   2.278   3.740   2.712
 1104SOL     OW 3449   3.657   2.928   2.735
 1104SOL    HW1 3450   3.595   2.913   2.659
 1104SOL    HW2 3451   3.605   2.939   2.820
 1105SOL     OW 3452   2.183   2.805   2.104
 1105SOL    HW1 3453   2.265   2.844   2.062
 1105SOL    HW2 3454   2.156   2.723   2.055
 1106SOL     OW 3455   2.973   3.638   2.099
 1106SOL    HW1 3456   2.913   3.576   2.149
 1106SOL    HW2 3457   3.004   3.594   2.014
 1107SOL     OW 3458   3.494   3.239   1.943
 1107SOL    HW1 3459   3.462   3.333   1.933
 1107SOL    HW2 3460   3.418   3.176   1.931
 1108SOL     OW 3461   2.326   3.605   2.185
 1108SOL    HW1 3462   2.359   3.644   2.271
 1108SOL    HW2 3463   2.402   3.598   2.120
 1109SOL     OW 3464   3.262   1.969   2.288
 1109SOL    HW1 3465   3.238   1.932   2.198
 1109SOL    HW2 3466   3.361   1.985   2.292
 1110SOL     OW 3467   2.802   3.560   2.766
 1110SOL    HW1 3468   2.882   3.503   2.787
 1110SOL    HW2 3469   2.753   3.520   2.689
 1111SOL     OW 3470   2.244   2.562   2.342
 1111SOL    HW1 3471   2.289   2.472   2.339
 1111SOL    HW2 3472   2.150   2.551   2.375
 1112SOL     OW 3473   2.476   1.984   1.979
 1112SOL    HW1 3474   2.574   1.962   1.986
 1112SOL    HW2 3475   2.445   1.967   1.886
 1113SOL     OW 3476   2.401   1.926   2.374
 1113SOL    HW1 3477   2.320   1.927   2.432
 1113SOL    HW2 3478   2.404   2.009   2.319
 1114SOL     OW 3479   3.296   3.050   1.903
 1114SOL    HW1 3480   3.328   2.974   1.960
 1114SOL    HW2 3481   3.204   3.077   1.933
 1115SOL     OW 3482   2.159   1.897   2.033
 1115SOL    HW1 3483   2.208   1.981   2.012
 1115SOL    HW2 3484   2.221   1.832   2.078
 1116SOL     OW 3485   2.797   2.098   2.342
 1116SOL    HW1 3486   2.749   2.139   2.264
 1116SOL    HW2 3487   2.896   2.096   2.323
 1117SOL     OW 3488   2.321   3.014   2.603
 1117SOL    HW1 3489   2.250   2.987   2.668
 1117SOL    HW2 3490   2.295   2.986   2.510
 1118SOL     OW 3491   3.133   3.659   2.453
 1118SOL    HW1 3492   3.177   3.723   2.389
 1118SOL    HW2 3493   3.083   3.711   2.523
 1119SOL     OW 3494   2.728   2.316   2.504
 1119SOL    HW1 3495   2.696   2.388   2.442
 1119SOL    HW2 3496   2.752   2.235   2.451
 1120SOL     OW 3497   3.719   2.695   2.239
 1120SOL    HW1 3498   3.761   2.631   2.303
 1120SOL    HW2 3499   3.681   2.644   2.161
 1121SOL     OW 3500   2.350   3.247   2.036
 1121SOL    HW1 3501   2.263   3.232   2.083
 1121SOL    HW2 3502   2.333   3.273   1.941
 1122SOL     OW 3503   3.526   3.142   2.519
 1122SOL    HW1 3504   3.625   3.150   2.533
 1122SOL    HW2 3505   3.481   3.226   2.550
 1123SOL     OW 3506   3.252   2.437   1.940
 1123SOL    HW1 3507   3.198   2.416   2.021
 1123SOL    HW2 3508   3.343   2.396   1.949
 1124SOL     OW 3509   2.389   2.118   2.190
 1124SOL    HW1 3510   2.416   2.059   2.115
 1124SOL    HW2 3511   2.389   2.213   2.159
 1125SOL     OW 3512   2.973   3.057   2.962
 1125SOL    HW1 3513   2.933   3.101   3.043
 1125SOL    HW2 3514   2.932   3.094   2.879
 1126SOL     OW 3515   2.567   2.912   2.230
 1126SOL    HW1 3516   2.553   2.919   2.329
 1126SOL    HW2 3517   2.651   2.861   2.212
 1127SOL     OW 3518   2.229   2.962   2.363
 1127SOL    HW1 3519   2.222   3.045   2.307
 1127SOL    HW2 3520   2.233   2.882   2.303
 1128SOL     OW 3521   3.114   3.210   2.250
 1128SOL    HW1 3522   3.164   3.287   2.290
 1128SOL    HW2 3523   3.019   3.212   2.282
 1129SOL     OW 3524   3.444   2.501   2.334
 1129SOL    HW1 3525   3.413   2.562   2.407
 1129SOL    HW2 3526   3.494   2.553   2.265
 1130SOL     OW 3527   3.071   2.387   2.137
 1130SOL    HW1 3528   3.084   2.303   2.191
 1130SOL    HW2 3529   3.042   2.461   2.197
 1131SOL     OW 3530   2.169   1.925   2.480
 1131SOL    HW1 3531   2.158   2.019   2.513
 1131SOL    HW2 3532   2.164   1.862   2.557
 1132SOL     OW 3533   3.484   2.229   2.236
 1132SOL    HW1 3534   3.486   2.153   2.300
 1132SOL    HW2 3535   3.436   2.306   2.276
 1133SOL     OW 3536   3.402   2.136   1.987
 1133SOL    HW1 3537   3.341   2.061   2.010
 1133SOL    HW2 3538   3.424   2.188   2.070
 1134SOL     OW 3539   3.165   2.700   1.904
 1134SOL    HW1 3540   3.199   2.607   1.919
 1134SOL    HW2 3541   3.183   2.727   1.809
 1135SOL     OW 3542   1.870   3.188   2.062
 1135SOL    HW1 3543   1.777   3.209   2.031
 1135SOL    HW2 3544   1.880   3.089   2.075
 1136SOL     OW 3545   1.902   2.406   2.976
 1136SOL    HW1 3546   1.987   2.373   2.935
 1136SOL    HW2 3547   1.915   2.421   3.074
 1137SOL     OW 3548   2.677   2.434   2.187
 1137SOL    HW1 3549   2.684   2.345   2.141
 1137SOL    HW2 3550   2.583   2.468   2.179
 1138SOL     OW 3551   2.335   2.362   2.053
 1138SOL    HW1 3552   2.396   2.442   2.057
 1138SOL    HW2 3553   2.240   2.393   2.060
 1139SOL     OW 3554   3.164   2.717   2.171
 1139SOL    HW1 3555   3.078   2.686   2.213
 1139SOL    HW2 3556   3.160   2.703   2.072
 1140SOL     OW 3557   3.588   1.997   2.385
 1140SOL    HW1 3558   3.661   1.980   2.318
 1140SOL    HW2 3559   3.557   1.910   2.423
 1141SOL     OW 3560   3.250   3.435   2.339
 1141SOL    HW1 3561   3.317   3.447   2.265
 1141SOL    HW2 3562   3.210   3.524   2.362
 1142SOL     OW 3563   3.703   2.037   2.825
 1142SOL    HW1 3564   3.742   1.952   2.789
 1142SOL    HW2 3565   3.605   2.039   2.806
 1143SOL     OW 3566   2.125   2.188   2.582
 1143SOL    HW1 3567   2.046   2.239   2.548
 1143SOL    HW2 3568   2.116   2.173   2.680
 1144SOL     OW 3569   3.056   3.474   1.893
 1144SOL    HW1 3570   3.062   3.381   1.930
 1144SOL    HW2 3571   2.997   3.474   1.813
 1145SOL     OW 3572   3.366   3.469   1.906
 1145SOL    HW1 3573   3.274   3.506   1.913
 1145SOL    HW2 3574   3.404   3.489   1.816
 1146SOL     OW 3575   2.452   3.349   2.353
 1146SOL    HW1 3576   2.494   3.291   2.283
 1146SOL    HW2 3577   2.408   3.428   2.309
 1147SOL     OW 3578   2.117   3.210   2.152
 1147SOL    HW1 3579   2.021   3.211   2.125
 1147SOL    HW2 3580   2.129   3.263   2.236
 1148SOL     OW 3581   1.937   2.207   1.895
 1148SOL    HW1 3582   1.845   2.179   1.866
 1148SOL    HW2 3583   1.968   2.284   1.839
 1149SOL     OW 3584   1.934   2.028   2.180
 1149SOL    HW1 3585   1.917   2.111   2.126
 1149SOL    HW2 3586   2.024   1.991   2.158
 1150SOL     OW 3587   3.087   2.187   2.311
 1150SOL    HW1 3588   3.152   2.113   2.300
 1150SOL    HW2 3589   3.107   2.237   2.395
 1151SOL     OW 3590   2.456   2.607   2.514
 1151SOL    HW1 3591   2.506   2.692   2.495
 1151SOL    HW2 3592   2.368   2.609   2.466
 1152SOL     OW 3593   2.721   2.818   2.723
 1152SOL    HW1 3594   2.775   2.749   2.771
 1152SOL    HW2 3595   2.689   2.887   2.789
 1153SOL     OW 3596   3.723   3.431   2.713
 1153SOL    HW1 3597   3.652   3.419   2.643
 1153SOL    HW2 3598   3.724   3.352   2.773
 1154SOL     OW 3599   1.941   3.102   2.515
 1154SOL    HW1 3600   1.940   3.055   2.603
 1154SOL    HW2 3601   2.023   3.074   2.464
 1155SOL     OW 3602   2.290   2.286   2.382
 1155SOL    HW1 3603   2.320   2.214   2.320
 1155SOL    HW2 3604   2.251   2.246   2.465
 1156SOL     OW 3605   2.674   3.448   2.549
 1156SOL    HW1 3606   2.706   3.458   2.455
 1156SOL    HW2 3607   2.595   3.386   2.551
 1157SOL     OW 3608   2.632   3.192   2.163
 1157SOL    HW1 3609   2.586   3.105   2.180
 1157SOL    HW2 3610   2.723   3.189   2.204
 1158SOL     OW 3611   3.214   1.914   2.030
 1158SOL    HW1 3612   3.249   1.873   1.946
 1158SOL    HW2 3613   3.124   1.876   2.050
 1159SOL     OW 3614   3.162   2.315   2.553
 1159SOL    HW1 3615   3.103   2.395   2.557
 1159SOL    HW2 3616   3.177   2.280   2.646
 1160SOL     OW 3617   1.901   2.939   2.162
 1160SOL    HW1 3618   2.000   2.928   2.153
 1160SOL    HW2 3619   1.861   2.853   2.194
 1161SOL     OW 3620   2.765   3.810   1.995
 1161SOL    HW1 3621   2.816   3.811   1.909
 1161SOL    HW2 3622   2.821   3.768   2.066
 1162NA      NA 3623   0.812   1.586   0.687
 1163NA      NA 3624   0.613   1.365   2.588
 1164NA      NA 3625   1.127   3.203   1.690
 1165NA      NA 3626   1.940   0.556   1.386
 1166NA      NA 3627   2.674   1.586   0.687
 1167CL      CL 3628   1.032   2.411   1.878
 1168CL      CL 3629   2.213   1.801   2.715
 1169CL      CL 3630   3.402   0.274   1.987
   3.78687   3.78687   2.67772   0.00000   0.00000   0.00000   0.00000   1.89344   1.89344
