;
;	CLN025 (ACE-YYDPETGTWY-NH2) from PDB 2RVD model 1, amber99sb-ildn + TIP3P,
;	rhombic dodecahedron with 1.0 nm to the box edge, 0.15 M NaCl, net charge 0.
;	Built with GROMACS 2025.1 from ../cln025_capped.pdb and ../../mdp/em.mdp:
;	  gmx pdb2gmx -f cln025_capped.pdb -o cln025.gro -p topol.top -i posre.itp -ff amber99sb-ildn -water tip3p -ignh
;	  gmx editconf -f cln025.gro -o box.gro -c -d 1.0 -bt dodecahedron
;	  gmx solvate -cp box.gro -cs spc216.gro -o solv.gro -p topol.top
;	  gmx grompp -f em.mdp -c solv.gro -p topol.top -o ions.tpr -maxwarn 1
;	  echo SOL | gmx genion -s ions.tpr -o cln025_solvated.gro -p topol.top -pname NA -nname CL -neutral -conc 0.15
;

; Include forcefield parameters
#include "amber99sb-ildn.ff/forcefield.itp"

[ moleculetype ]
; Name            nrexcl
Protein_chain_A     3

[ atoms ]
;   nr       type  resnr residue  atom   cgnr     charge       mass  typeB    chargeB      massB
; residue   0 ACE rtp ACE  q  0.0
     1         CT      0    ACE    CH3      1    -0.3662      12.01
     2         HC      0    ACE   HH31      2     0.1123      1.008
     3         HC      0    ACE   HH32      3     0.1123      1.008
     4         HC      0    ACE   HH33      4     0.1123      1.008
     5          C      0    ACE      C      5     0.5972      12.01
     6          O      0    ACE      O      6    -0.5679         16   ; qtot 0
; residue   1 TYR rtp TYR  q  0.0
     7          N      1    TYR      N      7    -0.4157      14.01
     8          H      1    TYR      H      8     0.2719      1.008
     9         CT      1    TYR     CA      9    -0.0014      12.01
    10         H1      1    TYR     HA     10     0.0876      1.008
    11         CT      1    TYR     CB     11    -0.0152      12.01
    12         HC      1    TYR    HB1     12     0.0295      1.008
    13         HC      1    TYR    HB2     13     0.0295      1.008
    14         CA      1    TYR     CG     14    -0.0011      12.01
    15         CA      1    TYR    CD1     15    -0.1906      12.01
    16         HA      1    TYR    HD1     16     0.1699      1.008
    17         CA      1    TYR    CE1     17    -0.2341      12.01
    18         HA      1    TYR    HE1     18     0.1656      1.008
    19          C      1    TYR     CZ     19     0.3226      12.01
    20         OH      1    TYR     OH     20    -0.5579         16
    21         HO      1    TYR     HH     21     0.3992      1.008
    22         CA      1    TYR    CE2     22    -0.2341      12.01
    23         HA      1    TYR    HE2     23     0.1656      1.008
    24         CA      1    TYR    CD2     24    -0.1906      12.01
    25         HA      1    TYR    HD2     25     0.1699      1.008
    26          C      1    TYR      C     26     0.5973      12.01
    27          O      1    TYR      O     27    -0.5679         16   ; qtot 0
; residue   2 TYR rtp TYR  q  0.0
    28          N      2    TYR      N     28    -0.4157      14.01
    29          H      2    TYR      H     29     0.2719      1.008
    30         CT      2    TYR     CA     30    -0.0014      12.01
    31         H1      2    TYR     HA     31     0.0876      1.008
    32         CT      2    TYR     CB     32    -0.0152      12.01
    33         HC      2    TYR    HB1     33     0.0295      1.008
    34         HC      2    TYR    HB2     34     0.0295      1.008
    35         CA      2    TYR     CG     35    -0.0011      12.01
    36         CA      2    TYR    CD1     36    -0.1906      12.01
    37         HA      2    TYR    HD1     37     0.1699      1.008
    38         CA      2    TYR    CE1     38    -0.2341      12.01
    39         HA      2    TYR    HE1     39     0.1656      1.008
    40          C      2    TYR     CZ     40     0.3226      12.01
    41         OH      2    TYR     OH     41    -0.5579         16
    42         HO      2    TYR     HH     42     0.3992      1.008
    43         CA      2    TYR    CE2     43    -0.2341      12.01
    44         HA      2    TYR    HE2     44     0.1656      1.008
    45         CA      2    TYR    CD2     45    -0.1906      12.01
    46         HA      2    TYR    HD2     46     0.1699      1.008
    47          C      2    TYR      C     47     0.5973      12.01
    48          O      2    TYR      O     48    -0.5679         16   ; qtot 0
; residue   3 ASP rtp ASP  q -1.0
    49          N      3    ASP      N     49    -0.5163      14.01
    50          H      3    ASP      H     50     0.2936      1.008
    51         CT      3    ASP     CA     51     0.0381      12.01
    52         H1      3    ASP     HA     52      0.088      1.008
    53         CT      3    ASP     CB     53    -0.0303      12.01
    54         HC      3    ASP    HB1     54    -0.0122      1.008
    55         HC      3    ASP    HB2     55    -0.0122      1.008
    56          C      3    ASP     CG     56     0.7994      12.01
    57         O2      3    ASP    OD1     57    -0.8014         16
    58         O2      3    ASP    OD2     58    -0.8014         16
    59          C      3    ASP      C     59     0.5366      12.01
    60          O      3    ASP      O     60    -0.5819         16   ; qtot -1
; residue   4 PRO rtp PRO  q  0.0
    61          N      4    PRO      N     61    -0.2548      14.01
    62         CT      4    PRO     CD     62     0.0192      12.01
    63         H1      4    PRO    HD1     63     0.0391      1.008
    64         H1      4    PRO    HD2     64     0.0391      1.008
    65         CT      4    PRO     CG     65     0.0189      12.01
    66         HC      4    PRO    HG1     66     0.0213      1.008
    67         HC      4    PRO    HG2     67     0.0213      1.008
    68         CT      4    PRO     CB     68     -0.007      12.01
    69         HC      4    PRO    HB1     69     0.0253      1.008
    70         HC      4    PRO    HB2     70     0.0253      1.008
    71         CT      4    PRO     CA     71    -0.0266      12.01
    72         H1      4    PRO     HA     72     0.0641      1.008
    73          C      4    PRO      C     73     0.5896      12.01
    74          O      4    PRO      O     74    -0.5748         16   ; qtot -1
; residue   5 GLU rtp GLU  q -1.0
    75          N      5    GLU      N     75    -0.5163      14.01
    76          H      5    GLU      H     76     0.2936      1.008
    77         CT      5    GLU     CA     77     0.0397      12.01
    78         H1      5    GLU     HA     78     0.1105      1.008
    79         CT      5    GLU     CB     79      0.056      12.01
    80         HC      5    GLU    HB1     80    -0.0173      1.008
    81         HC      5    GLU    HB2     81    -0.0173      1.008
    82         CT      5    GLU     CG     82     0.0136      12.01
    83         HC      5    GLU    HG1     83    -0.0425      1.008
    84         HC      5    GLU    HG2     84    -0.0425      1.008
    85          C      5    GLU     CD     85     0.8054      12.01
    86         O2      5    GLU    OE1     86    -0.8188         16
    87         O2      5    GLU    OE2     87    -0.8188         16
    88          C      5    GLU      C     88     0.5366      12.01
    89          O      5    GLU      O     89    -0.5819         16   ; qtot -2
; residue   6 THR rtp THR  q  0.0
    90          N      6    THR      N     90    -0.4157      14.01
    91          H      6    THR      H     91     0.2719      1.008
    92         CT      6    THR     CA     92    -0.0389      12.01
    93         H1      6    THR     HA     93     0.1007      1.008
    94         CT      6    THR     CB     94     0.3654      12.01
    95         H1      6    THR     HB     95     0.0043      1.008
    96         CT      6    THR    CG2     96    -0.2438      12.01
    97         HC      6    THR   HG21     97     0.0642      1.008
    98         HC      6    THR   HG22     98     0.0642      1.008
    99         HC      6    THR   HG23     99     0.0642      1.008
   100         OH      6    THR    OG1    100    -0.6761         16
   101         HO      6    THR    HG1    101     0.4102      1.008
   102          C      6    THR      C    102     0.5973      12.01
   103          O      6    THR      O    103    -0.5679         16   ; qtot -2
; residue   7 GLY rtp GLY  q  0.0
   104          N      7    GLY      N    104    -0.4157      14.01
   105          H      7    GLY      H    105     0.2719      1.008
   106         CT      7    GLY     CA    106    -0.0252      12.01
   107         H1      7    GLY    HA1    107     0.0698      1.008
   108         H1      7    GLY    HA2    108     0.0698      1.008
   109          C      7    GLY      C    109     0.5973      12.01
   110          O      7    GLY      O    110    -0.5679         16   ; qtot -2
; residue   8 THR rtp THR  q  0.0
   111          N      8    THR      N    111    -0.4157      14.01
   112          H      8    THR      H    112     0.2719      1.008
   113         CT      8    THR     CA    113    -0.0389      12.01
   114         H1      8    THR     HA    114     0.1007      1.008
   115         CT      8    THR     CB    115     0.3654      12.01
   116         H1      8    THR     HB    116     0.0043      1.008
   117         CT      8    THR    CG2    117    -0.2438      12.01
   118         HC      8    THR   HG21    118     0.0642      1.008
   119         HC      8    THR   HG22    119     0.0642      1.008
   120         HC      8    THR   HG23    120     0.0642      1.008
   121         OH      8    THR    OG1    121    -0.6761         16
   122         HO      8    THR    HG1    122     0.4102      1.008
   123          C      8    THR      C    123     0.5973      12.01
   124          O      8    THR      O    124    -0.5679         16   ; qtot -2
; residue   9 TRP rtp TRP  q  0.0
   125          N      9    TRP      N    125    -0.4157      14.01
   126          H      9    TRP      H    126     0.2719      1.008
   127         CT      9    TRP     CA    127    -0.0275      12.01
   128         H1      9    TRP     HA    128     0.1123      1.008
   129         CT      9    TRP     CB    129     -0.005      12.01
   130         HC      9    TRP    HB1    130     0.0339      1.008
   131         HC      9    TRP    HB2    131     0.0339      1.008
   132         C*      9    TRP     CG    132    -0.1415      12.01
   133         CW      9    TRP    CD1    133    -0.1638      12.01
   134         H4      9    TRP    HD1    134     0.2062      1.008
   135         NA      9    TRP    NE1    135    -0.3418      14.01
   136          H      9    TRP    HE1    136     0.3412      1.008
   137         CN      9    TRP    CE2    137      0.138      12.01
   138         CA      9    TRP    CZ2    138    -0.2601      12.01
   139         HA      9    TRP    HZ2    139     0.1572      1.008
   140         CA      9    TRP    CH2    140    -0.1134      12.01
   141         HA      9    TRP    HH2    141     0.1417      1.008
   142         CA      9    TRP    CZ3    142    -0.1972      12.01
   143         HA      9    TRP    HZ3    143     0.1447      1.008
   144         CA      9    TRP    CE3    144    -0.2387      12.01
   145         HA      9    TRP    HE3    145       0.17      1.008
   146         CB      9    TRP    CD2    146     0.1243      12.01
   147          C      9    TRP      C    147     0.5973      12.01
   148          O      9    TRP      O    148    -0.5679         16   ; qtot -2
; residue  10 TYR rtp TYR  q  0.0
   149          N     10    TYR      N    149    -0.4157      14.01
   150          H     10    TYR      H    150     0.2719      1.008
   151         CT     10    TYR     CA    151    -0.0014      12.01
   152         H1     10    TYR     HA    152     0.0876      1.008
   153         CT     10    TYR     CB    153    -0.0152      12.01
   154         HC     10    TYR    HB1    154     0.0295      1.008
   155         HC     10    TYR    HB2    155     0.0295      1.008
   156         CA     10    TYR     CG    156    -0.0011      12.01
   157         CA     10    TYR    CD1    157    -0.1906      12.01
   158         HA     10    TYR    HD1    158     0.1699      1.008
   159         CA     10    TYR    CE1    159    -0.2341      12.01
   160         HA     10    TYR    HE1    160     0.1656      1.008
   161          C     10    TYR     CZ    161     0.3226      12.01
   162         OH     10    TYR     OH    162    -0.5579         16
   163         HO     10    TYR     HH    163     0.3992      1.008
   164         CA     10    TYR    CE2    164    -0.2341      12.01
   165         HA     10    TYR    HE2    165     0.1656      1.008
   166         CA     10    TYR    CD2    166    -0.1906      12.01
   167         HA     10    TYR    HD2    167     0.1699      1.008
   168          C     10    TYR      C    168     0.5973      12.01
   169          O     10    TYR      O    169    -0.5679         16   ; qtot -2
; residue  11 NH2 rtp NH2  q  0.0
   170          N     11    NH2      N    170     -0.463      14.01
   171          H     11    NH2     H1    171     0.2315      1.008
   172          H     11    NH2     H2    172     0.2315      1.008   ; qtot -2

[ bonds ]
;  ai    aj funct            c0            c1            c2            c3
    1     2     1 
    1     3     1 
    1     4     1 
    1     5     1 
    5     6     1 
    5     7     1 
    7     8     1 
    7     9     1 
    9    10     1 
    9    11     1 
    9    26     1 
   11    12     1 
   11    13     1 
   11    14     1 
   14    15     1 
   14    24     1 
   15    16     1 
   15    17     1 
   17    18     1 
   17    19     1 
   19    20     1 
   19    22     1 
   20    21     1 
   22    23     1 
   22    24     1 
   24    25     1 
   26    27     1 
   26    28     1 
   28    29     1 
   28    30     1 
   30    31     1 
   30    32     1 
   30    47     1 
   32    33     1 
   32    34     1 
   32    35     1 
   35    36     1 
   35    45     1 
   36    37     1 
   36    38     1 
   38    39     1 
   38    40     1 
   40    41     1 
   40    43     1 
   41    42     1 
   43    44     1 
   43    45     1 
   45    46     1 
   47    48     1 
   47    49     1 
   49    50     1 
   49    51     1 
   51    52     1 
   51    53     1 
   51    59     1 
   53    54     1 
   53    55     1 
   53    56     1 
   56    57     1 
   56    58     1 
   59    60     1 
   59    61     1 
   61    62     1 
   61    71     1 
   62    63     1 
   62    64     1 
   62    65     1 
   65    66     1 
   65    67     1 
   65    68     1 
   68    69     1 
   68    70     1 
   68    71     1 
   71    72     1 
   71    73     1 
   73    74     1 
   73    75     1 
   75    76     1 
   75    77     1 
   77    78     1 
   77    79     1 
   77    88     1 
   79    80     1 
   79    81     1 
   79    82     1 
   82    83     1 
   82    84     1 
   82    85     1 
   85    86     1 
   85    87     1 
   88    89     1 
   88    90     1 
   90    91     1 
   90    92     1 
   92    93     1 
   92    94     1 
   92   102     1 
   94    95     1 
   94    96     1 
   94   100     1 
   96    97     1 
   96    98     1 
   96    99     1 
  100   101     1 
  102   103     1 
  102   104     1 
  104   105     1 
  104   106     1 
  106   107     1 
  106   108     1 
  106   109     1 
  109   110     1 
  109   111     1 
  111   112     1 
  111   113     1 
  113   114     1 
  113   115     1 
  113   123     1 
  115   116     1 
  115   117     1 
  115   121     1 
  117   118     1 
  117   119     1 
  117   120     1 
  121   122     1 
  123   124     1 
  123   125     1 
  125   126     1 
  125   127     1 
  127   128     1 
  127   129     1 
  127   147     1 
  129   130     1 
  129   131     1 
  129   132     1 
  132   133     1 
  132   146     1 
  133   134     1 
  133   135     1 
  135   136     1 
  135   137     1 
  137   138     1 
  137   146     1 
  138   139     1 
  138   140     1 
  140   141     1 
  140   142     1 
  142   143     1 
  142   144     1 
  144   145     1 
  144   146     1 
  147   148     1 
  147   149     1 
  149   150     1 
  149   151     1 
  151   152     1 
  151   153     1 
  151   168     1 
  153   154     1 
  153   155     1 
  153   156     1 
  156   157     1 
  156   166     1 
  157   158     1 
  157   159     1 
  159   160     1 
  159   161     1 
  161   162     1 
  161   164     1 
  162   163     1 
  164   165     1 
  164   166     1 
  166   167     1 
  168   169     1 
  168   170     1 
  170   171     1 
  170   172     1 

[ pairs ]
;  ai    aj funct            c0            c1            c2            c3
    1     8     1 
    1     9     1 
    2     6     1 
    2     7     1 
    3     6     1 
    3     7     1 
    4     6     1 
    4     7     1 
    5    10     1 
    5    11     1 
    5    26     1 
    6     8     1 
    6     9     1 
    7    12     1 
    7    13     1 
    7    14     1 
    7    27     1 
    7    28     1 
    8    10     1 
    8    11     1 
    8    26     1 
    9    15     1 
    9    24     1 
    9    29     1 
    9    30     1 
   10    12     1 
   10    13     1 
   10    14     1 
   10    27     1 
   10    28     1 
   11    16     1 
   11    17     1 
   11    22     1 
   11    25     1 
   11    27     1 
   11    28     1 
   12    15     1 
   12    24     1 
   12    26     1 
   13    15     1 
   13    24     1 
   13    26     1 
   14    18     1 
   14    19     1 
   14    23     1 
   14    26     1 
   15    20     1 
   15    22     1 
   15    25     1 
   16    18     1 
   16    19     1 
   16    24     1 
   17    21     1 
   17    23     1 
   17    24     1 
   18    20     1 
   18    22     1 
   19    25     1 
   20    23     1 
   20    24     1 
   21    22     1 
   23    25     1 
   26    31     1 
   26    32     1 
   26    47     1 
   27    29     1 
   27    30     1 
   28    33     1 
   28    34     1 
   28    35     1 
   28    48     1 
   28    49     1 
   29    31     1 
   29    32     1 
   29    47     1 
   30    36     1 
   30    45     1 
   30    50     1 
   30    51     1 
   31    33     1 
   31    34     1 
   31    35     1 
   31    48     1 
   31    49     1 
   32    37     1 
   32    38     1 
   32    43     1 
   32    46     1 
   32    48     1 
   32    49     1 
   33    36     1 
   33    45     1 
   33    47     1 
   34    36     1 
   34    45     1 
   34    47     1 
   35    39     1 
   35    40     1 
   35    44     1 
   35    47     1 
   36    41     1 
   36    43     1 
   36    46     1 
   37    39     1 
   37    40     1 
   37    45     1 
   38    42     1 
   38    44     1 
   38    45     1 
   39    41     1 
   39    43     1 
   40    46     1 
   41    44     1 
   41    45     1 
   42    43     1 
   44    46     1 
   47    52     1 
   47    53     1 
   47    59     1 
   48    50     1 
   48    51     1 
   49    54     1 
   49    55     1 
   49    56     1 
   49    60     1 
   49    61     1 
   50    52     1 
   50    53     1 
   50    59     1 
   51    57     1 
   51    58     1 
   51    62     1 
   51    71     1 
   52    54     1 
   52    55     1 
   52    56     1 
   52    60     1 
   52    61     1 
   53    60     1 
   53    61     1 
   54    57     1 
   54    58     1 
   54    59     1 
   55    57     1 
   55    58     1 
   55    59     1 
   56    59     1 
   59    63     1 
   59    64     1 
   59    65     1 
   59    68     1 
   59    72     1 
   59    73     1 
   60    62     1 
   60    71     1 
   61    66     1 
   61    67     1 
   61    69     1 
   61    70     1 
   61    74     1 
   61    75     1 
   62    69     1 
   62    70     1 
   62    72     1 
   62    73     1 
   63    66     1 
   63    67     1 
   63    68     1 
   63    71     1 
   64    66     1 
   64    67     1 
   64    68     1 
   64    71     1 
   65    72     1 
   65    73     1 
   66    69     1 
   66    70     1 
   66    71     1 
   67    69     1 
   67    70     1 
   67    71     1 
   68    74     1 
   68    75     1 
   69    72     1 
   69    73     1 
   70    72     1 
   70    73     1 
   71    76     1 
   71    77     1 
   72    74     1 
   72    75     1 
   73    78     1 
   73    79     1 
   73    88     1 
   74    76     1 
   74    77     1 
   75    80     1 
   75    81     1 
   75    82     1 
   75    89     1 
   75    90     1 
   76    78     1 
   76    79     1 
   76    88     1 
   77    83     1 
   77    84     1 
   77    85     1 
   77    91     1 
   77    92     1 
   78    80     1 
   78    81     1 
   78    82     1 
   78    89     1 
   78    90     1 
   79    86     1 
   79    87     1 
   79    89     1 
   79    90     1 
   80    83     1 
   80    84     1 
   80    85     1 
   80    88     1 
   81    83     1 
   81    84     1 
   81    85     1 
   81    88     1 
   82    88     1 
   83    86     1 
   83    87     1 
   84    86     1 
   84    87     1 
   88    93     1 
   88    94     1 
   88   102     1 
   89    91     1 
   89    92     1 
   90    95     1 
   90    96     1 
   90   100     1 
   90   103     1 
   90   104     1 
   91    93     1 
   91    94     1 
   91   102     1 
   92    97     1 
   92    98     1 
   92    99     1 
   92   101     1 
   92   105     1 
   92   106     1 
   93    95     1 
   93    96     1 
   93   100     1 
   93   103     1 
   93   104     1 
   94   103     1 
   94   104     1 
   95    97     1 
   95    98     1 
   95    99     1 
   95   101     1 
   95   102     1 
   96   101     1 
   96   102     1 
   97   100     1 
   98   100     1 
   99   100     1 
  100   102     1 
  102   107     1 
  102   108     1 
  102   109     1 
  103   105     1 
  103   106     1 
  104   110     1 
  104   111     1 
  105   107     1 
  105   108     1 
  105   109     1 
  106   112     1 
  106   113     1 
  107   110     1 
  107   111     1 
  108   110     1 
  108   111     1 
  109   114     1 
  109   115     1 
  109   123     1 
  110   112     1 
  110   113     1 
  111   116     1 
  111   117     1 
  111   121     1 
  111   124     1 
  111   125     1 
  112   114     1 
  112   115     1 
  112   123     1 
  113   118     1 
  113   119     1 
  113   120     1 
  113   122     1 
  113   126     1 
  113   127     1 
  114   116     1 
  114   117     1 
  114   121     1 
  114   124     1 
  114   125     1 
  115   124     1 
  115   125     1 
  116   118     1 
  116   119     1 
  116   120     1 
  116   122     1 
  116   123     1 
  117   122     1 
  117   123     1 
  118   121     1 
  119   121     1 
  120   121     1 
  121   123     1 
  123   128     1 
  123   129     1 
  123   147     1 
  124   126     1 
  124   127     1 
  125   130     1 
  125   131     1 
  125   132     1 
  125   148     1 
  125   149     1 
  126   128     1 
  126   129     1 
  126   147     1 
  127   133     1 
  127   146     1 
  127   150     1 
  127   151     1 
  128   130     1 
  128   131     1 
  128   132     1 
  128   148     1 
  128   149     1 
  129   134     1 
  129   135     1 
  129   137     1 
  129   144     1 
  129   148     1 
  129   149     1 
  130   133     1 
  130   146     1 
  130   147     1 
  131   133     1 
  131   146     1 
  131   147     1 
  132   136     1 
  132   138     1 
  132   142     1 
  132   145     1 
  132   147     1 
  133   138     1 
  133   144     1 
  134   136     1 
  134   137     1 
  134   146     1 
  135   139     1 
  135   140     1 
  135   144     1 
  136   138     1 
  136   146     1 
  137   141     1 
  137   142     1 
  137   145     1 
  138   143     1 
  138   144     1 
  139   141     1 
  139   142     1 
  139   146     1 
  140   145     1 
  140   146     1 
  141   143     1 
  141   144     1 
  143   145     1 
  143   146     1 
  147   152     1 
  147   153     1 
  147   168     1 
  148   150     1 
  148   151     1 
  149   154     1 
  149   155     1 
  149   156     1 
  149   169     1 
  149   170     1 
  150   152     1 
  150   153     1 
  150   168     1 
  151   157     1 
  151   166     1 
  151   171     1 
  151   172     1 
  152   154     1 
  152   155     1 
  152   156     1 
  152   169     1 
  152   170     1 
  153   158     1 
  153   159     1 
  153   164     1 
  153   167     1 
  153   169     1 
  153   170     1 
  154   157     1 
  154   166     1 
  154   168     1 
  155   157     1 
  155   166     1 
  155   168     1 
  156   160     1 
  156   161     1 
  156   165     1 
  156   168     1 
  157   162     1 
  157   164     1 
  157   167     1 
  158   160     1 
  158   161     1 
  158   166     1 
  159   163     1 
  159   165     1 
  159   166     1 
  160   162     1 
  160   164     1 
  161   167     1 
  162   165     1 
  162   166     1 
  163   164     1 
  165   167     1 
  169   171     1 
  169   172     1 

[ angles ]
;  ai    aj    ak funct            c0            c1            c2            c3
    2     1     3     1 
    2     1     4     1 
    2     1     5     1 
    3     1     4     1 
    3     1     5     1 
    4     1     5     1 
    1     5     6     1 
    1     5     7     1 
    6     5     7     1 
    5     7     8     1 
    5     7     9     1 
    8     7     9     1 
    7     9    10     1 
    7     9    11     1 
    7     9    26     1 
   10     9    11     1 
   10     9    26     1 
   11     9    26     1 
    9    11    12     1 
    9    11    13     1 
    9    11    14     1 
   12    11    13     1 
   12    11    14     1 
   13    11    14     1 
   11    14    15     1 
   11    14    24     1 
   15    14    24     1 
   14    15    16     1 
   14    15    17     1 
   16    15    17     1 
   15    17    18     1 
   15    17    19     1 
   18    17    19     1 
   17    19    20     1 
   17    19    22     1 
   20    19    22     1 
   19    20    21     1 
   19    22    23     1 
   19    22    24     1 
   23    22    24     1 
   14    24    22     1 
   14    24    25     1 
   22    24    25     1 
    9    26    27     1 
    9    26    28     1 
   27    26    28     1 
   26    28    29     1 
   26    28    30     1 
   29    28    30     1 
   28    30    31     1 
   28    30    32     1 
   28    30    47     1 
   31    30    32     1 
   31    30    47     1 
   32    30    47     1 
   30    32    33     1 
   30    32    34     1 
   30    32    35     1 
   33    32    34     1 
   33    32    35     1 
   34    32    35     1 
   32    35    36     1 
   32    35    45     1 
   36    35    45     1 
   35    36    37     1 
   35    36    38     1 
   37    36    38     1 
   36    38    39     1 
   36    38    40     1 
   39    38    40     1 
   38    40    41     1 
   38    40    43     1 
   41    40    43     1 
   40    41    42     1 
   40    43    44     1 
   40    43    45     1 
   44    43    45     1 
   35    45    43     1 
   35    45    46     1 
   43    45    46     1 
   30    47    48     1 
   30    47    49     1 
   48    47    49     1 
   47    49    50     1 
   47    49    51     1 
   50    49    51     1 
   49    51    52     1 
   49    51    53     1 
   49    51    59     1 
   52    51    53     1 
   52    51    59     1 
   53    51    59     1 
   51    53    54     1 
   51    53    55     1 
   51    53    56     1 
   54    53    55     1 
   54    53    56     1 
   55    53    56     1 
   53    56    57     1 
   53    56    58     1 
   57    56    58     1 
   51    59    60     1 
   51    59    61     1 
   60    59    61     1 
   59    61    62     1 
   59    61    71     1 
   62    61    71     1 
   61    62    63     1 
   61    62    64     1 
   61    62    65     1 
   63    62    64     1 
   63    62    65     1 
   64    62    65     1 
   62    65    66     1 
   62    65    67     1 
   62    65    68     1 
   66    65    67     1 
   66    65    68     1 
   67    65    68     1 
   65    68    69     1 
   65    68    70     1 
   65    68    71     1 
   69    68    70     1 
   69    68    71     1 
   70    68    71     1 
   61    71    68     1 
   61    71    72     1 
   61    71    73     1 
   68    71    72     1 
   68    71    73     1 
   72    71    73     1 
   71    73    74     1 
   71    73    75     1 
   74    73    75     1 
   73    75    76     1 
   73    75    77     1 
   76    75    77     1 
   75    77    78     1 
   75    77    79     1 
   75    77    88     1 
   78    77    79     1 
   78    77    88     1 
   79    77    88     1 
   77    79    80     1 
   77    79    81     1 
   77    79    82     1 
   80    79    81     1 
   80    79    82     1 
   81    79    82     1 
   79    82    83     1 
   79    82    84     1 
   79    82    85     1 
   83    82    84     1 
   83    82    85     1 
   84    82    85     1 
   82    85    86     1 
   82    85    87     1 
   86    85    87     1 
   77    88    89     1 
   77    88    90     1 
   89    88    90     1 
   88    90    91     1 
   88    90    92     1 
   91    90    92     1 
   90    92    93     1 
   90    92    94     1 
   90    92   102     1 
   93    92    94     1 
   93    92   102     1 
   94    92   102     1 
   92    94    95     1 
   92    94    96     1 
   92    94   100     1 
   95    94    96     1 
   95    94   100     1 
   96    94   100     1 
   94    96    97     1 
   94    96    98     1 
   94    96    99     1 
   97    96    98     1 
   97    96    99     1 
   98    96    99     1 
   94   100   101     1 
   92   102   103     1 
   92   102   104     1 
  103   102   104     1 
  102   104   105     1 
  102   104   106     1 
  105   104   106     1 
  104   106   107     1 
  104   106   108     1 
  104   106   109     1 
  107   106   108     1 
  107   106   109     1 
  108   106   109     1 
  106   109   110     1 
  106   109   111     1 
  110   109   111     1 
  109   111   112     1 
  109   111   113     1 
  112   111   113     1 
  111   113   114     1 
  111   113   115     1 
  111   113   123     1 
  114   113   115     1 
  114   113   123     1 
  115   113   123     1 
  113   115   116     1 
  113   115   117     1 
  113   115   121     1 
  116   115   117     1 
  116   115   121     1 
  117   115   121     1 
  115   117   118     1 
  115   117   119     1 
  115   117   120     1 
  118   117   119     1 
  118   117   120     1 
  119   117   120     1 
  115   121   122     1 
  113   123   124     1 
  113   123   125     1 
  124   123   125     1 
  123   125   126     1 
  123   125   127     1 
  126   125   127     1 
  125   127   128     1 
  125   127   129     1 
  125   127   147     1 
  128   127   129     1 
  128   127   147     1 
  129   127   147     1 
  127   129   130     1 
  127   129   131     1 
  127   129   132     1 
  130   129   131     1 
  130   129   132     1 
  131   129   132     1 
  129   132   133     1 
  129   132   146     1 
  133   132   146     1 
  132   133   134     1 
  132   133   135     1 
  134   133   135     1 
  133   135   136     1 
  133   135   137     1 
  136   135   137     1 
  135   137   138     1 
  135   137   146     1 
  138   137   146     1 
  137   138   139     1 
  137   138   140     1 
  139   138   140     1 
  138   140   141     1 
  138   140   142     1 
  141   140   142     1 
  140   142   143     1 
  140   142   144     1 
  143   142   144     1 
  142   144   145     1 
  142   144   146     1 
  145   144   146     1 
  132   146   137     1 
  132   146   144     1 
  137   146   144     1 
  127   147   148     1 
  127   147   149     1 
  148   147   149     1 
  147   149   150     1 
  147   149   151     1 
  150   149   151     1 
  149   151   152     1 
  149   151   153     1 
  149   151   168     1 
  152   151   153     1 
  152   151   168     1 
  153   151   168     1 
  151   153   154     1 
  151   153   155     1 
  151   153   156     1 
  154   153   155     1 
  154   153   156     1 
  155   153   156     1 
  153   156   157     1 
  153   156   166     1 
  157   156   166     1 
  156   157   158     1 
  156   157   159     1 
  158   157   159     1 
  157   159   160     1 
  157   159   161     1 
  160   159   161     1 
  159   161   162     1 
  159   161   164     1 
  162   161   164     1 
  161   162   163     1 
  161   164   165     1 
  161   164   166     1 
  165   164   166     1 
  156   166   164     1 
  156   166   167     1 
  164   166   167     1 
  151   168   169     1 
  151   168   170     1 
  169   168   170     1 
  168   170   171     1 
  168   170   172     1 
  171   170   172     1 

[ dihedrals ]
;  ai    aj    ak    al funct            c0            c1            c2            c3            c4            c5
    2     1     5     6     9 
    2     1     5     7     9 
    3     1     5     6     9 
    3     1     5     7     9 
    4     1     5     6     9 
    4     1     5     7     9 
    1     5     7     8     9 
    1     5     7     9     9 
    6     5     7     8     9 
    6     5     7     9     9 
    5     7     9    10     9 
    5     7     9    11     9 
    5     7     9    26     9 
    8     7     9    10     9 
    8     7     9    11     9 
    8     7     9    26     9 
    7     9    11    12     9 
    7     9    11    13     9 
    7     9    11    14     9 
   10     9    11    12     9 
   10     9    11    13     9 
   10     9    11    14     9 
   26     9    11    12     9 
   26     9    11    13     9 
   26     9    11    14     9 
    7     9    26    27     9 
    7     9    26    28     9 
   10     9    26    27     9 
   10     9    26    28     9 
   11     9    26    27     9 
   11     9    26    28     9 
    9    11    14    15     9 
    9    11    14    24     9 
   12    11    14    15     9 
   12    11    14    24     9 
   13    11    14    15     9 
   13    11    14    24     9 
   11    14    15    16     9 
   11    14    15    17     9 
   24    14    15    16     9 
   24    14    15    17     9 
   11    14    24    22     9 
   11    14    24    25     9 
   15    14    24    22     9 
   15    14    24    25     9 
   14    15    17    18     9 
   14    15    17    19     9 
   16    15    17    18     9 
   16    15    17    19     9 
   15    17    19    20     9 
   15    17    19    22     9 
   18    17    19    20     9 
   18    17    19    22     9 
   17    19    20    21     9 
   22    19    20    21     9 
   17    19    22    23     9 
   17    19    22    24     9 
   20    19    22    23     9 
   20    19    22    24     9 
   19    22    24    14     9 
   19    22    24    25     9 
   23    22    24    14     9 
   23    22    24    25     9 
    9    26    28    29     9 
    9    26    28    30     9 
   27    26    28    29     9 
   27    26    28    30     9 
   26    28    30    31     9 
   26    28    30    32     9 
   26    28    30    47     9 
   29    28    30    31     9 
   29    28    30    32     9 
   29    28    30    47     9 
   28    30    32    33     9 
   28    30    32    34     9 
   28    30    32    35     9 
   31    30    32    33     9 
   31    30    32    34     9 
   31    30    32    35     9 
   47    30    32    33     9 
   47    30    32    34     9 
   47    30    32    35     9 
   28    30    47    48     9 
   28    30    47    49     9 
   31    30    47    48     9 
   31    30    47    49     9 
   32    30    47    48     9 
   32    30    47    49     9 
   30    32    35    36     9 
   30    32    35    45     9 
   33    32    35    36     9 
   33    32    35    45     9 
   34    32    35    36     9 
   34    32    35    45     9 
   32    35    36    37     9 
   32    35    36    38     9 
   45    35    36    37     9 
   45    35    36    38     9 
   32    35    45    43     9 
   32    35    45    46     9 
   36    35    45    43     9 
   36    35    45    46     9 
   35    36    38    39     9 
   35    36    38    40     9 
   37    36    38    39     9 
   37    36    38    40     9 
   36    38    40    41     9 
   36    38    40    43     9 
   39    38    40    41     9 
   39    38    40    43     9 
   38    40    41    42     9 
   43    40    41    42     9 
   38    40    43    44     9 
   38    40    43    45     9 
   41    40    43    44     9 
   41    40    43    45     9 
   40    43    45    35     9 
   40    43    45    46     9 
   44    43    45    35     9 
   44    43    45    46     9 
   30    47    49    50     9 
   30    47    49    51     9 
   48    47    49    50     9 
   48    47    49    51     9 
   47    49    51    52     9 
   47    49    51    53     9 
   47    49    51    59     9 
   50    49    51    52     9 
   50    49    51    53     9 
   50    49    51    59     9 
   49    51    53    56     9    torsion_ASP_N_CA_CB_CG_mult1
   49    51    53    56     9    torsion_ASP_N_CA_CB_CG_mult2
   49    51    53    56     9    torsion_ASP_N_CA_CB_CG_mult3
   49    51    53    56     9    torsion_ASP_N_CA_CB_CG_mult4
   49    51    53    56     9    torsion_ASP_N_CA_CB_CG_mult5
   49    51    53    56     9    torsion_ASP_N_CA_CB_CG_mult6
   49    51    53    54     9 
   49    51    53    55     9 
   52    51    53    54     9 
   52    51    53    55     9 
   52    51    53    56     9 
   59    51    53    54     9 
   59    51    53    55     9 
   59    51    53    56     9 
   49    51    59    60     9 
   49    51    59    61     9 
   52    51    59    60     9 
   52    51    59    61     9 
   53    51    59    60     9 
   53    51    59    61     9 
   51    53    56    57     9    torsion_ASP_CA_CB_CG_OD_mult1
   51    53    56    57     9    torsion_ASP_CA_CB_CG_OD_mult2
   51    53    56    57     9    torsion_ASP_CA_CB_CG_OD_mult3
   51    53    56    57     9    torsion_ASP_CA_CB_CG_OD_mult4
   51    53    56    57     9    torsion_ASP_CA_CB_CG_OD_mult5
   51    53    56    57     9    torsion_ASP_CA_CB_CG_OD_mult6
   51    53    56    58     9    torsion_ASP_CA_CB_CG_OD_mult1
   51    53    56    58     9    torsion_ASP_CA_CB_CG_OD_mult2
   51    53    56    58     9    torsion_ASP_CA_CB_CG_OD_mult3
   51    53    56    58     9    torsion_ASP_CA_CB_CG_OD_mult4
   51    53    56    58     9    torsion_ASP_CA_CB_CG_OD_mult5
   51    53    56    58     9    torsion_ASP_CA_CB_CG_OD_mult6
   54    53    56    57     9 
   54    53    56    58     9 
   55    53    56    57     9 
   55    53    56    58     9 
   51    59    61    62     9 
   51    59    61    71     9 
   60    59    61    62     9 
   60    59    61    71     9 
   59    61    62    63     9 
   59    61    62    64     9 
   59    61    62    65     9 
   71    61    62    63     9 
   71    61    62    64     9 
   71    61    62    65     9 
   59    61    71    68     9 
   59    61    71    72     9 
   59    61    71    73     9 
   62    61    71    68     9 
   62    61    71    72     9 
   62    61    71    73     9 
   61    62    65    66     9 
   61    62    65    67     9 
   61    62    65    68     9 
   63    62    65    66     9 
   63    62    65    67     9 
   63    62    65    68     9 
   64    62    65    66     9 
   64    62    65    67     9 
   64    62    65    68     9 
   62    65    68    69     9 
   62    65    68    70     9 
   62    65    68    71     9 
   66    65    68    69     9 
   66    65    68    70     9 
   66    65    68    71     9 
   67    65    68    69     9 
   67    65    68    70     9 
   67    65    68    71     9 
   65    68    71    61     9 
   65    68    71    72     9 
   65    68    71    73     9 
   69    68    71    61     9 
   69    68    71    72     9 
   69    68    71    73     9 
   70    68    71    61     9 
   70    68    71    72     9 
   70    68    71    73     9 
   61    71    73    74     9 
   61    71    73    75     9 
   68    71    73    74     9 
   68    71    73    75     9 
   72    71    73    74     9 
   72    71    73    75     9 
   71    73    75    76     9 
   71    73    75    77     9 
   74    73    75    76     9 
   74    73    75    77     9 
   73    75    77    78     9 
   73    75    77    79     9 
   73    75    77    88     9 
   76    75    77    78     9 
   76    75    77    79     9 
   76    75    77    88     9 
   75    77    79    80     9 
   75    77    79    81     9 
   75    77    79    82     9 
   78    77    79    80     9 
   78    77    79    81     9 
   78    77    79    82     9 
   88    77    79    80     9 
   88    77    79    81     9 
   88    77    79    82     9 
   75    77    88    89     9 
   75    77    88    90     9 
   78    77    88    89     9 
   78    77    88    90     9 
   79    77    88    89     9 
   79    77    88    90     9 
   77    79    82    83     9 
   77    79    82    84     9 
   77    79    82    85     9 
   80    79    82    83     9 
   80    79    82    84     9 
   80    79    82    85     9 
   81    79    82    83     9 
   81    79    82    84     9 
   81    79    82    85     9 
   79    82    85    86     9 
   79    82    85    87     9 
   83    82    85    86     9 
   83    82    85    87     9 
   84    82    85    86     9 
   84    82    85    87     9 
   77    88    90    91     9 
   77    88    90    92     9 
   89    88    90    91     9 
   89    88    90    92     9 
   88    90    92    93     9 
   88    90    92    94     9 
   88    90    92   102     9 
   91    90    92    93     9 
   91    90    92    94     9 
   91    90    92   102     9 
   90    92    94    95     9 
   90    92    94    96     9 
   90    92    94   100     9 
   93    92    94    95     9 
   93    92    94    96     9 
   93    92    94   100     9 
  102    92    94    95     9 
  102    92    94    96     9 
  102    92    94   100     9 
   90    92   102   103     9 
   90    92   102   104     9 
   93    92   102   103     9 
   93    92   102   104     9 
   94    92   102   103     9 
   94    92   102   104     9 
   92    94    96    97     9 
   92    94    96    98     9 
   92    94    96    99     9 
   95    94    96    97     9 
   95    94    96    98     9 
   95    94    96    99     9 
  100    94    96    97     9 
  100    94    96    98     9 
  100    94    96    99     9 
   92    94   100   101     9 
   95    94   100   101     9 
   96    94   100   101     9 
   92   102   104   105     9 
   92   102   104   106     9 
  103   102   104   105     9 
  103   102   104   106     9 
  102   104   106   107     9 
  102   104   106   108     9 
  102   104   106   109     9 
  105   104   106   107     9 
  105   104   106   108     9 
  105   104   106   109     9 
  104   106   109   110     9 
  104   106   109   111     9 
  107   106   109   110     9 
  107   106   109   111     9 
  108   106   109   110     9 
  108   106   109   111     9 
  106   109   111   112     9 
  106   109   111   113     9 
  110   109   111   112     9 
  110   109   111   113     9 
  109   111   113   114     9 
  109   111   113   115     9 
  109   111   113   123     9 
  112   111   113   114     9 
  112   111   113   115     9 
  112   111   113   123     9 
  111   113   115   116     9 
  111   113   115   117     9 
  111   113   115   121     9 
  114   113   115   116     9 
  114   113   115   117     9 
  114   113   115   121     9 
  123   113   115   116     9 
  123   113   115   117     9 
  123   113   115   121     9 
  111   113   123   124     9 
  111   113   123   125     9 
  114   113   123   124     9 
  114   113   123   125     9 
  115   113   123   124     9 
  115   113   123   125     9 
  113   115   117   118     9 
  113   115   117   119     9 
  113   115   117   120     9 
  116   115   117   118     9 
  116   115   117   119     9 
  116   115   117   120     9 
  121   115   117   118     9 
  121   115   117   119     9 
  121   115   117   120     9 
  113   115   121   122     9 
  116   115   121   122     9 
  117   115   121   122     9 
  113   123   125   126     9 
  113   123   125   127     9 
  124   123   125   126     9 
  124   123   125   127     9 
  123   125   127   128     9 
  123   125   127   129     9 
  123   125   127   147     9 
  126   125   127   128     9 
  126   125   127   129     9 
  126   125   127   147     9 
  125   127   129   130     9 
  125   127   129   131     9 
  125   127   129   132     9 
  128   127   129   130     9 
  128   127   129   131     9 
  128   127   129   132     9 
  147   127   129   130     9 
  147   127   129   131     9 
  147   127   129   132     9 
  125   127   147   148     9 
  125   127   147   149     9 
  128   127   147   148     9 
  128   127   147   149     9 
  129   127   147   148     9 
  129   127   147   149     9 
  127   129   132   133     9 
  127   129   132   146     9 
  130   129   132   133     9 
  130   129   132   146     9 
  131   129   132   133     9 
  131   129   132   146     9 
  129   132   133   134     9 
  129   132   133   135     9 
  146   132   133   134     9 
  146   132   133   135     9 
  129   132   146   137     9 
  129   132   146   144     9 
  133   132   146   137     9 
  133   132   146   144     9 
  132   133   135   136     9 
  132   133   135   137     9 
  134   133   135   136     9 
  134   133   135   137     9 
  133   135   137   138     9 
  133   135   137   146     9 
  136   135   137   138     9 
  136   135   137   146     9 
  135   137   138   139     9 
  135   137   138   140     9 
  146   137   138   139     9 
  146   137   138   140     9 
  135   137   146   132     9 
  135   137   146   144     9 
  138   137   146   132     9 
  138   137   146   144     9 
  137   138   140   141     9 
  137   138   140   142     9 
  139   138   140   141     9 
  139   138   140   142     9 
  138   140   142   143     9 
  138   140   142   144     9 
  141   140   142   143     9 
  141   140   142   144     9 
  140   142   144   145     9 
  140   142   144   146     9 
  143   142   144   145     9 
  143   142   144   146     9 
  142   144   146   132     9 
  142   144   146   137     9 
  145   144   146   132     9 
  145   144   146   137     9 
  127   147   149   150     9 
  127   147   149   151     9 
  148   147   149   150     9 
  148   147   149   151     9 
  147   149   151   152     9 
  147   149   151   153     9 
  147   149   151   168     9 
  150   149   151   152     9 
  150   149   151   153     9 
  150   149   151   168     9 
  149   151   153   154     9 
  149   151   153   155     9 
  149   151   153   156     9 
  152   151   153   154     9 
  152   151   153   155     9 
  152   151   153   156     9 
  168   151   153   154     9 
  168   151   153   155     9 
  168   151   153   156     9 
  149   151   168   169     9 
  149   151   168   170     9 
  152   151   168   169     9 
  152   151   168   170     9 
  153   151   168   169     9 
  153   151   168   170     9 
  151   153   156   157     9 
  151   153   156   166     9 
  154   153   156   157     9 
  154   153   156   166     9 
  155   153   156   157     9 
  155   153   156   166     9 
  153   156   157   158     9 
  153   156   157   159     9 
  166   156   157   158     9 
  166   156   157   159     9 
  153   156   166   164     9 
  153   156   166   167     9 
  157   156   166   164     9 
  157   156   166   167     9 
  156   157   159   160     9 
  156   157   159   161     9 
  158   157   159   160     9 
  158   157   159   161     9 
  157   159   161   162     9 
  157   159   161   164     9 
  160   159   161   162     9 
  160   159   161   164     9 
  159   161   162   163     9 
  164   161   162   163     9 
  159   161   164   165     9 
  159   161   164   166     9 
  162   161   164   165     9 
  162   161   164   166     9 
  161   164   166   156     9 
  161   164   166   167     9 
  165   164   166   156     9 
  165   164   166   167     9 
  151   168   170   171     9 
  151   168   170   172     9 
  169   168   170   171     9 
  169   168   170   172     9 

[ dihedrals ]
;  ai    aj    ak    al funct            c0            c1            c2            c3
    1     7     5     6     4 
    5     9     7     8     4 
    9    28    26    27     4 
   11    14    24    15     4 
   14    17    15    16     4 
   14    22    24    25     4 
   15    19    17    18     4 
   17    22    19    20     4 
   19    24    22    23     4 
   26    30    28    29     4 
   30    49    47    48     4 
   32    35    45    36     4 
   35    38    36    37     4 
   35    43    45    46     4 
   36    40    38    39     4 
   38    43    40    41     4 
   40    45    43    44     4 
   47    51    49    50     4 
   51    61    59    60     4 
   53    57    56    58     4 
   59    62    61    71     4 
   71    75    73    74     4 
   73    77    75    76     4 
   77    90    88    89     4 
   82    86    85    87     4 
   88    92    90    91     4 
   92   104   102   103     4 
  102   106   104   105     4 
  106   111   109   110     4 
  109   113   111   112     4 
  113   125   123   124     4 
  123   127   125   126     4 
  127   149   147   148     4 
  132   135   133   134     4 
  133   137   135   136     4 
  133   132   129   146     4 
  137   140   138   139     4 
  138   142   140   141     4 
  140   144   142   143     4 
  142   146   144   145     4 
  147   151   149   150     4 
  151   170   168   169     4 
  153   156   166   157     4 
  156   159   157   158     4 
  156   164   166   167     4 
  157   161   159   160     4 
  159   164   161   162     4 
  161   166   164   165     4 
  168   171   170   172     4 

; Include Position restraint file
#ifdef POSRES
#include "posre.itp"
#endif

; Include water topology
#include "amber99sb-ildn.ff/tip3p.itp"

#ifdef POSRES_WATER
; Position restraint for each water oxygen
[ position_restraints ]
;  i funct       fcx        fcy        fcz
   1    1       1000       1000       1000
#endif

; Include topology for ions
#include "amber99sb-ildn.ff/ions.itp"

[ system ]
; Name
CLN025 (ACE-YYDPETGTWY-NH2), capped from PDB 2RVD model 1 in water

[ molecules ]
; Compound        #mols
Protein_chain_A     1
SOL         1150
NA               5
CL               3
